+ 0.00017 0 1 rtProtoDV 4 ------- 0 0.2 1.1 -1 2
- 0.00017 0 1 rtProtoDV 4 ------- 0 0.2 1.1 -1 2
+ 0.00017 0 2 rtProtoDV 4 ------- 0 0.2 2.2 -1 3
- 0.00017 0 2 rtProtoDV 4 ------- 0 0.2 2.2 -1 3
+ 0.007102 2 0 rtProtoDV 4 ------- 0 2.2 0.2 -1 5
- 0.007102 2 0 rtProtoDV 4 ------- 0 2.2 0.2 -1 5
+ 0.007102 2 1 rtProtoDV 4 ------- 0 2.2 1.1 -1 6
- 0.007102 2 1 rtProtoDV 4 ------- 0 2.2 1.1 -1 6
r 0.010202 0 1 rtProtoDV 4 ------- 0 0.2 1.1 -1 2
r 0.010202 0 2 rtProtoDV 4 ------- 0 0.2 2.2 -1 3
r 0.017134 2 0 rtProtoDV 4 ------- 0 2.2 0.2 -1 5
r 0.017134 2 1 rtProtoDV 4 ------- 0 2.2 1.1 -1 6
+ 0.044061 3 1 rtProtoDV 4 ------- 0 3.3 1.1 -1 17
- 0.044061 3 1 rtProtoDV 4 ------- 0 3.3 1.1 -1 17
r 0.054093 3 1 rtProtoDV 4 ------- 0 3.3 1.1 -1 17
+ 0.27794 1 0 rtProtoDV 4 ------- 0 1.1 0.2 -1 81
- 0.27794 1 0 rtProtoDV 4 ------- 0 1.1 0.2 -1 81
+ 0.27794 1 2 rtProtoDV 4 ------- 0 1.1 2.2 -1 82
- 0.27794 1 2 rtProtoDV 4 ------- 0 1.1 2.2 -1 82
+ 0.27794 1 3 rtProtoDV 4 ------- 0 1.1 3.3 -1 83
- 0.27794 1 3 rtProtoDV 4 ------- 0 1.1 3.3 -1 83
r 0.287972 1 0 rtProtoDV 4 ------- 0 1.1 0.2 -1 81
+ 0.287972 0 1 rtProtoDV 4 ------- 0 0.2 1.1 -1 86
- 0.287972 0 1 rtProtoDV 4 ------- 0 0.2 1.1 -1 86
+ 0.287972 0 2 rtProtoDV 4 ------- 0 0.2 2.2 -1 87
- 0.287972 0 2 rtProtoDV 4 ------- 0 0.2 2.2 -1 87
r 0.287972 1 2 rtProtoDV 4 ------- 0 1.1 2.2 -1 82
+ 0.287972 2 0 rtProtoDV 4 ------- 0 2.2 0.2 -1 88
- 0.287972 2 0 rtProtoDV 4 ------- 0 2.2 0.2 -1 88
+ 0.287972 2 1 rtProtoDV 4 ------- 0 2.2 1.1 -1 89
- 0.287972 2 1 rtProtoDV 4 ------- 0 2.2 1.1 -1 89
r 0.287972 1 3 rtProtoDV 4 ------- 0 1.1 3.3 -1 83
+ 0.287972 3 1 rtProtoDV 4 ------- 0 3.3 1.1 -1 90
- 0.287972 3 1 rtProtoDV 4 ------- 0 3.3 1.1 -1 90
+ 0.28875 2 1 cbr 210 ------- 0 2.0 3.1 77 91
- 0.28875 2 1 cbr 210 ------- 0 2.0 3.1 77 91
+ 0.2925 2 1 cbr 210 ------- 0 2.0 3.1 78 92
- 0.2925 2 1 cbr 210 ------- 0 2.0 3.1 78 92
+ 0.29625 2 1 cbr 210 ------- 0 2.0 3.1 79 93
- 0.29625 2 1 cbr 210 ------- 0 2.0 3.1 79 93
r 0.298004 0 1 rtProtoDV 4 ------- 0 0.2 1.1 -1 86
r 0.298004 0 2 rtProtoDV 4 ------- 0 0.2 2.2 -1 87
r 0.298004 2 0 rtProtoDV 4 ------- 0 2.2 0.2 -1 88
r 0.298004 2 1 rtProtoDV 4 ------- 0 2.2 1.1 -1 89
r 0.298004 3 1 rtProtoDV 4 ------- 0 3.3 1.1 -1 90
+ 0.3 2 1 cbr 210 ------- 0 2.0 3.1 80 94
- 0.3 2 1 cbr 210 ------- 0 2.0 3.1 80 94
r 0.30043 2 1 cbr 210 ------- 0 2.0 3.1 77 91
+ 0.30043 1 3 cbr 210 ------- 0 2.0 3.1 77 91
- 0.30043 1 3 cbr 210 ------- 0 2.0 3.1 77 91
+ 0.30375 2 1 cbr 210 ------- 0 2.0 3.1 81 95
- 0.30375 2 1 cbr 210 ------- 0 2.0 3.1 81 95
r 0.30418 2 1 cbr 210 ------- 0 2.0 3.1 78 92
+ 0.30418 1 3 cbr 210 ------- 0 2.0 3.1 78 92
- 0.30418 1 3 cbr 210 ------- 0 2.0 3.1 78 92
+ 0.3075 2 1 cbr 210 ------- 0 2.0 3.1 82 96
- 0.3075 2 1 cbr 210 ------- 0 2.0 3.1 82 96
r 0.30793 2 1 cbr 210 ------- 0 2.0 3.1 79 93
+ 0.30793 1 3 cbr 210 ------- 0 2.0 3.1 79 93
- 0.30793 1 3 cbr 210 ------- 0 2.0 3.1 79 93
+ 0.31125 2 1 cbr 210 ------- 0 2.0 3.1 83 97
- 0.31125 2 1 cbr 210 ------- 0 2.0 3.1 83 97
r 0.31168 2 1 cbr 210 ------- 0 2.0 3.1 80 94
+ 0.31168 1 3 cbr 210 ------- 0 2.0 3.1 80 94
- 0.31168 1 3 cbr 210 ------- 0 2.0 3.1 80 94
r 0.31211 1 3 cbr 210 ------- 0 2.0 3.1 77 91
+ 0.315 2 1 cbr 210 ------- 0 2.0 3.1 84 98
- 0.315 2 1 cbr 210 ------- 0 2.0 3.1 84 98
r 0.31543 2 1 cbr 210 ------- 0 2.0 3.1 81 95
+ 0.31543 1 3 cbr 210 ------- 0 2.0 3.1 81 95
- 0.31543 1 3 cbr 210 ------- 0 2.0 3.1 81 95
r 0.31586 1 3 cbr 210 ------- 0 2.0 3.1 78 92
+ 0.31875 2 1 cbr 210 ------- 0 2.0 3.1 85 99
- 0.31875 2 1 cbr 210 ------- 0 2.0 3.1 85 99
r 0.31918 2 1 cbr 210 ------- 0 2.0 3.1 82 96
+ 0.31918 1 3 cbr 210 ------- 0 2.0 3.1 82 96
- 0.31918 1 3 cbr 210 ------- 0 2.0 3.1 82 96
r 0.31961 1 3 cbr 210 ------- 0 2.0 3.1 79 93
+ 0.3225 2 1 cbr 210 ------- 0 2.0 3.1 86 100
- 0.3225 2 1 cbr 210 ------- 0 2.0 3.1 86 100
r 0.32293 2 1 cbr 210 ------- 0 2.0 3.1 83 97
+ 0.32293 1 3 cbr 210 ------- 0 2.0 3.1 83 97
- 0.32293 1 3 cbr 210 ------- 0 2.0 3.1 83 97
r 0.32336 1 3 cbr 210 ------- 0 2.0 3.1 80 94
+ 0.32625 2 1 cbr 210 ------- 0 2.0 3.1 87 101
- 0.32625 2 1 cbr 210 ------- 0 2.0 3.1 87 101
r 0.32668 2 1 cbr 210 ------- 0 2.0 3.1 84 98
+ 0.32668 1 3 cbr 210 ------- 0 2.0 3.1 84 98
- 0.32668 1 3 cbr 210 ------- 0 2.0 3.1 84 98
r 0.32711 1 3 cbr 210 ------- 0 2.0 3.1 81 95
+ 0.33 2 1 cbr 210 ------- 0 2.0 3.1 88 102
- 0.33 2 1 cbr 210 ------- 0 2.0 3.1 88 102
r 0.33043 2 1 cbr 210 ------- 0 2.0 3.1 85 99
+ 0.33043 1 3 cbr 210 ------- 0 2.0 3.1 85 99
- 0.33043 1 3 cbr 210 ------- 0 2.0 3.1 85 99
r 0.33086 1 3 cbr 210 ------- 0 2.0 3.1 82 96
+ 0.33375 2 1 cbr 210 ------- 0 2.0 3.1 89 103
- 0.33375 2 1 cbr 210 ------- 0 2.0 3.1 89 103
r 0.33418 2 1 cbr 210 ------- 0 2.0 3.1 86 100
+ 0.33418 1 3 cbr 210 ------- 0 2.0 3.1 86 100
- 0.33418 1 3 cbr 210 ------- 0 2.0 3.1 86 100
r 0.33461 1 3 cbr 210 ------- 0 2.0 3.1 83 97
+ 0.3375 2 1 cbr 210 ------- 0 2.0 3.1 90 104
- 0.3375 2 1 cbr 210 ------- 0 2.0 3.1 90 104
r 0.33793 2 1 cbr 210 ------- 0 2.0 3.1 87 101
+ 0.33793 1 3 cbr 210 ------- 0 2.0 3.1 87 101
- 0.33793 1 3 cbr 210 ------- 0 2.0 3.1 87 101
r 0.33836 1 3 cbr 210 ------- 0 2.0 3.1 84 98
+ 0.34125 2 1 cbr 210 ------- 0 2.0 3.1 91 105
- 0.34125 2 1 cbr 210 ------- 0 2.0 3.1 91 105
r 0.34168 2 1 cbr 210 ------- 0 2.0 3.1 88 102
+ 0.34168 1 3 cbr 210 ------- 0 2.0 3.1 88 102
- 0.34168 1 3 cbr 210 ------- 0 2.0 3.1 88 102
r 0.34211 1 3 cbr 210 ------- 0 2.0 3.1 85 99
+ 0.345 2 1 cbr 210 ------- 0 2.0 3.1 92 106
- 0.345 2 1 cbr 210 ------- 0 2.0 3.1 92 106
r 0.34543 2 1 cbr 210 ------- 0 2.0 3.1 89 103
+ 0.34543 1 3 cbr 210 ------- 0 2.0 3.1 89 103
- 0.34543 1 3 cbr 210 ------- 0 2.0 3.1 89 103
r 0.34586 1 3 cbr 210 ------- 0 2.0 3.1 86 100
+ 0.34875 2 1 cbr 210 ------- 0 2.0 3.1 93 107
- 0.34875 2 1 cbr 210 ------- 0 2.0 3.1 93 107
r 0.34918 2 1 cbr 210 ------- 0 2.0 3.1 90 104
+ 0.34918 1 3 cbr 210 ------- 0 2.0 3.1 90 104
- 0.34918 1 3 cbr 210 ------- 0 2.0 3.1 90 104
r 0.34961 1 3 cbr 210 ------- 0 2.0 3.1 87 101
+ 0.3525 2 1 cbr 210 ------- 0 2.0 3.1 94 108
- 0.3525 2 1 cbr 210 ------- 0 2.0 3.1 94 108
r 0.35293 2 1 cbr 210 ------- 0 2.0 3.1 91 105
+ 0.35293 1 3 cbr 210 ------- 0 2.0 3.1 91 105
- 0.35293 1 3 cbr 210 ------- 0 2.0 3.1 91 105
r 0.35336 1 3 cbr 210 ------- 0 2.0 3.1 88 102
+ 0.35625 2 1 cbr 210 ------- 0 2.0 3.1 95 109
- 0.35625 2 1 cbr 210 ------- 0 2.0 3.1 95 109
r 0.35668 2 1 cbr 210 ------- 0 2.0 3.1 92 106
+ 0.35668 1 3 cbr 210 ------- 0 2.0 3.1 92 106
- 0.35668 1 3 cbr 210 ------- 0 2.0 3.1 92 106
r 0.35711 1 3 cbr 210 ------- 0 2.0 3.1 89 103
+ 0.36 2 1 cbr 210 ------- 0 2.0 3.1 96 110
- 0.36 2 1 cbr 210 ------- 0 2.0 3.1 96 110
r 0.36043 2 1 cbr 210 ------- 0 2.0 3.1 93 107
+ 0.36043 1 3 cbr 210 ------- 0 2.0 3.1 93 107
- 0.36043 1 3 cbr 210 ------- 0 2.0 3.1 93 107
r 0.36086 1 3 cbr 210 ------- 0 2.0 3.1 90 104
+ 0.36375 2 1 cbr 210 ------- 0 2.0 3.1 97 111
- 0.36375 2 1 cbr 210 ------- 0 2.0 3.1 97 111
r 0.36418 2 1 cbr 210 ------- 0 2.0 3.1 94 108
+ 0.36418 1 3 cbr 210 ------- 0 2.0 3.1 94 108
- 0.36418 1 3 cbr 210 ------- 0 2.0 3.1 94 108
r 0.36461 1 3 cbr 210 ------- 0 2.0 3.1 91 105
+ 0.3675 2 1 cbr 210 ------- 0 2.0 3.1 98 112
- 0.3675 2 1 cbr 210 ------- 0 2.0 3.1 98 112
r 0.36793 2 1 cbr 210 ------- 0 2.0 3.1 95 109
+ 0.36793 1 3 cbr 210 ------- 0 2.0 3.1 95 109
- 0.36793 1 3 cbr 210 ------- 0 2.0 3.1 95 109
r 0.36836 1 3 cbr 210 ------- 0 2.0 3.1 92 106
+ 0.37125 2 1 cbr 210 ------- 0 2.0 3.1 99 113
- 0.37125 2 1 cbr 210 ------- 0 2.0 3.1 99 113
r 0.37168 2 1 cbr 210 ------- 0 2.0 3.1 96 110
+ 0.37168 1 3 cbr 210 ------- 0 2.0 3.1 96 110
- 0.37168 1 3 cbr 210 ------- 0 2.0 3.1 96 110
r 0.37211 1 3 cbr 210 ------- 0 2.0 3.1 93 107
+ 0.375 2 1 cbr 210 ------- 0 2.0 3.1 100 114
- 0.375 2 1 cbr 210 ------- 0 2.0 3.1 100 114
r 0.37543 2 1 cbr 210 ------- 0 2.0 3.1 97 111
+ 0.37543 1 3 cbr 210 ------- 0 2.0 3.1 97 111
- 0.37543 1 3 cbr 210 ------- 0 2.0 3.1 97 111
r 0.37586 1 3 cbr 210 ------- 0 2.0 3.1 94 108
+ 0.37875 2 1 cbr 210 ------- 0 2.0 3.1 101 115
- 0.37875 2 1 cbr 210 ------- 0 2.0 3.1 101 115
r 0.37918 2 1 cbr 210 ------- 0 2.0 3.1 98 112
+ 0.37918 1 3 cbr 210 ------- 0 2.0 3.1 98 112
- 0.37918 1 3 cbr 210 ------- 0 2.0 3.1 98 112
r 0.37961 1 3 cbr 210 ------- 0 2.0 3.1 95 109
+ 0.3825 2 1 cbr 210 ------- 0 2.0 3.1 102 116
- 0.3825 2 1 cbr 210 ------- 0 2.0 3.1 102 116
r 0.38293 2 1 cbr 210 ------- 0 2.0 3.1 99 113
+ 0.38293 1 3 cbr 210 ------- 0 2.0 3.1 99 113
- 0.38293 1 3 cbr 210 ------- 0 2.0 3.1 99 113
r 0.38336 1 3 cbr 210 ------- 0 2.0 3.1 96 110
+ 0.38625 2 1 cbr 210 ------- 0 2.0 3.1 103 117
- 0.38625 2 1 cbr 210 ------- 0 2.0 3.1 103 117
r 0.38668 2 1 cbr 210 ------- 0 2.0 3.1 100 114
+ 0.38668 1 3 cbr 210 ------- 0 2.0 3.1 100 114
- 0.38668 1 3 cbr 210 ------- 0 2.0 3.1 100 114
r 0.38711 1 3 cbr 210 ------- 0 2.0 3.1 97 111
+ 0.39 2 1 cbr 210 ------- 0 2.0 3.1 104 118
- 0.39 2 1 cbr 210 ------- 0 2.0 3.1 104 118
r 0.39043 2 1 cbr 210 ------- 0 2.0 3.1 101 115
+ 0.39043 1 3 cbr 210 ------- 0 2.0 3.1 101 115
- 0.39043 1 3 cbr 210 ------- 0 2.0 3.1 101 115
r 0.39086 1 3 cbr 210 ------- 0 2.0 3.1 98 112
+ 0.39375 2 1 cbr 210 ------- 0 2.0 3.1 105 119
- 0.39375 2 1 cbr 210 ------- 0 2.0 3.1 105 119
r 0.39418 2 1 cbr 210 ------- 0 2.0 3.1 102 116
+ 0.39418 1 3 cbr 210 ------- 0 2.0 3.1 102 116
- 0.39418 1 3 cbr 210 ------- 0 2.0 3.1 102 116
r 0.39461 1 3 cbr 210 ------- 0 2.0 3.1 99 113
+ 0.3975 2 1 cbr 210 ------- 0 2.0 3.1 106 120
- 0.3975 2 1 cbr 210 ------- 0 2.0 3.1 106 120
r 0.39793 2 1 cbr 210 ------- 0 2.0 3.1 103 117
+ 0.39793 1 3 cbr 210 ------- 0 2.0 3.1 103 117
- 0.39793 1 3 cbr 210 ------- 0 2.0 3.1 103 117
r 0.39836 1 3 cbr 210 ------- 0 2.0 3.1 100 114
+ 0.40125 2 1 cbr 210 ------- 0 2.0 3.1 107 121
- 0.40125 2 1 cbr 210 ------- 0 2.0 3.1 107 121
r 0.40168 2 1 cbr 210 ------- 0 2.0 3.1 104 118
+ 0.40168 1 3 cbr 210 ------- 0 2.0 3.1 104 118
- 0.40168 1 3 cbr 210 ------- 0 2.0 3.1 104 118
r 0.40211 1 3 cbr 210 ------- 0 2.0 3.1 101 115
+ 0.405 2 1 cbr 210 ------- 0 2.0 3.1 108 122
- 0.405 2 1 cbr 210 ------- 0 2.0 3.1 108 122
r 0.40543 2 1 cbr 210 ------- 0 2.0 3.1 105 119
+ 0.40543 1 3 cbr 210 ------- 0 2.0 3.1 105 119
- 0.40543 1 3 cbr 210 ------- 0 2.0 3.1 105 119
r 0.40586 1 3 cbr 210 ------- 0 2.0 3.1 102 116
+ 0.40875 2 1 cbr 210 ------- 0 2.0 3.1 109 123
- 0.40875 2 1 cbr 210 ------- 0 2.0 3.1 109 123
r 0.40918 2 1 cbr 210 ------- 0 2.0 3.1 106 120
+ 0.40918 1 3 cbr 210 ------- 0 2.0 3.1 106 120
- 0.40918 1 3 cbr 210 ------- 0 2.0 3.1 106 120
r 0.40961 1 3 cbr 210 ------- 0 2.0 3.1 103 117
+ 0.4125 2 1 cbr 210 ------- 0 2.0 3.1 110 124
- 0.4125 2 1 cbr 210 ------- 0 2.0 3.1 110 124
r 0.41293 2 1 cbr 210 ------- 0 2.0 3.1 107 121
+ 0.41293 1 3 cbr 210 ------- 0 2.0 3.1 107 121
- 0.41293 1 3 cbr 210 ------- 0 2.0 3.1 107 121
r 0.41336 1 3 cbr 210 ------- 0 2.0 3.1 104 118
+ 0.41625 2 1 cbr 210 ------- 0 2.0 3.1 111 125
- 0.41625 2 1 cbr 210 ------- 0 2.0 3.1 111 125
r 0.41668 2 1 cbr 210 ------- 0 2.0 3.1 108 122
+ 0.41668 1 3 cbr 210 ------- 0 2.0 3.1 108 122
- 0.41668 1 3 cbr 210 ------- 0 2.0 3.1 108 122
r 0.41711 1 3 cbr 210 ------- 0 2.0 3.1 105 119
+ 0.42 2 1 cbr 210 ------- 0 2.0 3.1 112 126
- 0.42 2 1 cbr 210 ------- 0 2.0 3.1 112 126
r 0.42043 2 1 cbr 210 ------- 0 2.0 3.1 109 123
+ 0.42043 1 3 cbr 210 ------- 0 2.0 3.1 109 123
- 0.42043 1 3 cbr 210 ------- 0 2.0 3.1 109 123
r 0.42086 1 3 cbr 210 ------- 0 2.0 3.1 106 120
+ 0.42375 2 1 cbr 210 ------- 0 2.0 3.1 113 127
- 0.42375 2 1 cbr 210 ------- 0 2.0 3.1 113 127
r 0.42418 2 1 cbr 210 ------- 0 2.0 3.1 110 124
+ 0.42418 1 3 cbr 210 ------- 0 2.0 3.1 110 124
- 0.42418 1 3 cbr 210 ------- 0 2.0 3.1 110 124
r 0.42461 1 3 cbr 210 ------- 0 2.0 3.1 107 121
+ 0.4275 2 1 cbr 210 ------- 0 2.0 3.1 114 128
- 0.4275 2 1 cbr 210 ------- 0 2.0 3.1 114 128
r 0.42793 2 1 cbr 210 ------- 0 2.0 3.1 111 125
+ 0.42793 1 3 cbr 210 ------- 0 2.0 3.1 111 125
- 0.42793 1 3 cbr 210 ------- 0 2.0 3.1 111 125
r 0.42836 1 3 cbr 210 ------- 0 2.0 3.1 108 122
+ 0.43125 2 1 cbr 210 ------- 0 2.0 3.1 115 129
- 0.43125 2 1 cbr 210 ------- 0 2.0 3.1 115 129
r 0.43168 2 1 cbr 210 ------- 0 2.0 3.1 112 126
+ 0.43168 1 3 cbr 210 ------- 0 2.0 3.1 112 126
- 0.43168 1 3 cbr 210 ------- 0 2.0 3.1 112 126
r 0.43211 1 3 cbr 210 ------- 0 2.0 3.1 109 123
+ 0.435 2 1 cbr 210 ------- 0 2.0 3.1 116 130
- 0.435 2 1 cbr 210 ------- 0 2.0 3.1 116 130
r 0.43543 2 1 cbr 210 ------- 0 2.0 3.1 113 127
+ 0.43543 1 3 cbr 210 ------- 0 2.0 3.1 113 127
- 0.43543 1 3 cbr 210 ------- 0 2.0 3.1 113 127
r 0.43586 1 3 cbr 210 ------- 0 2.0 3.1 110 124
+ 0.43875 2 1 cbr 210 ------- 0 2.0 3.1 117 131
- 0.43875 2 1 cbr 210 ------- 0 2.0 3.1 117 131
r 0.43918 2 1 cbr 210 ------- 0 2.0 3.1 114 128
+ 0.43918 1 3 cbr 210 ------- 0 2.0 3.1 114 128
- 0.43918 1 3 cbr 210 ------- 0 2.0 3.1 114 128
r 0.43961 1 3 cbr 210 ------- 0 2.0 3.1 111 125
+ 0.4425 2 1 cbr 210 ------- 0 2.0 3.1 118 132
- 0.4425 2 1 cbr 210 ------- 0 2.0 3.1 118 132
r 0.44293 2 1 cbr 210 ------- 0 2.0 3.1 115 129
+ 0.44293 1 3 cbr 210 ------- 0 2.0 3.1 115 129
- 0.44293 1 3 cbr 210 ------- 0 2.0 3.1 115 129
r 0.44336 1 3 cbr 210 ------- 0 2.0 3.1 112 126
+ 0.44625 2 1 cbr 210 ------- 0 2.0 3.1 119 133
- 0.44625 2 1 cbr 210 ------- 0 2.0 3.1 119 133
r 0.44668 2 1 cbr 210 ------- 0 2.0 3.1 116 130
+ 0.44668 1 3 cbr 210 ------- 0 2.0 3.1 116 130
- 0.44668 1 3 cbr 210 ------- 0 2.0 3.1 116 130
r 0.44711 1 3 cbr 210 ------- 0 2.0 3.1 113 127
+ 0.45 2 1 cbr 210 ------- 0 2.0 3.1 120 134
- 0.45 2 1 cbr 210 ------- 0 2.0 3.1 120 134
r 0.45043 2 1 cbr 210 ------- 0 2.0 3.1 117 131
+ 0.45043 1 3 cbr 210 ------- 0 2.0 3.1 117 131
- 0.45043 1 3 cbr 210 ------- 0 2.0 3.1 117 131
r 0.45086 1 3 cbr 210 ------- 0 2.0 3.1 114 128
+ 0.45375 2 1 cbr 210 ------- 0 2.0 3.1 121 135
- 0.45375 2 1 cbr 210 ------- 0 2.0 3.1 121 135
r 0.45418 2 1 cbr 210 ------- 0 2.0 3.1 118 132
+ 0.45418 1 3 cbr 210 ------- 0 2.0 3.1 118 132
- 0.45418 1 3 cbr 210 ------- 0 2.0 3.1 118 132
r 0.45461 1 3 cbr 210 ------- 0 2.0 3.1 115 129
+ 0.4575 2 1 cbr 210 ------- 0 2.0 3.1 122 136
- 0.4575 2 1 cbr 210 ------- 0 2.0 3.1 122 136
r 0.45793 2 1 cbr 210 ------- 0 2.0 3.1 119 133
+ 0.45793 1 3 cbr 210 ------- 0 2.0 3.1 119 133
- 0.45793 1 3 cbr 210 ------- 0 2.0 3.1 119 133
r 0.45836 1 3 cbr 210 ------- 0 2.0 3.1 116 130
+ 0.46125 2 1 cbr 210 ------- 0 2.0 3.1 123 137
- 0.46125 2 1 cbr 210 ------- 0 2.0 3.1 123 137
r 0.46168 2 1 cbr 210 ------- 0 2.0 3.1 120 134
+ 0.46168 1 3 cbr 210 ------- 0 2.0 3.1 120 134
- 0.46168 1 3 cbr 210 ------- 0 2.0 3.1 120 134
r 0.46211 1 3 cbr 210 ------- 0 2.0 3.1 117 131
+ 0.465 2 1 cbr 210 ------- 0 2.0 3.1 124 138
- 0.465 2 1 cbr 210 ------- 0 2.0 3.1 124 138
r 0.46543 2 1 cbr 210 ------- 0 2.0 3.1 121 135
+ 0.46543 1 3 cbr 210 ------- 0 2.0 3.1 121 135
- 0.46543 1 3 cbr 210 ------- 0 2.0 3.1 121 135
r 0.46586 1 3 cbr 210 ------- 0 2.0 3.1 118 132
+ 0.46875 2 1 cbr 210 ------- 0 2.0 3.1 125 139
- 0.46875 2 1 cbr 210 ------- 0 2.0 3.1 125 139
r 0.46918 2 1 cbr 210 ------- 0 2.0 3.1 122 136
+ 0.46918 1 3 cbr 210 ------- 0 2.0 3.1 122 136
- 0.46918 1 3 cbr 210 ------- 0 2.0 3.1 122 136
r 0.46961 1 3 cbr 210 ------- 0 2.0 3.1 119 133
+ 0.4725 2 1 cbr 210 ------- 0 2.0 3.1 126 140
- 0.4725 2 1 cbr 210 ------- 0 2.0 3.1 126 140
r 0.47293 2 1 cbr 210 ------- 0 2.0 3.1 123 137
+ 0.47293 1 3 cbr 210 ------- 0 2.0 3.1 123 137
- 0.47293 1 3 cbr 210 ------- 0 2.0 3.1 123 137
r 0.47336 1 3 cbr 210 ------- 0 2.0 3.1 120 134
+ 0.47625 2 1 cbr 210 ------- 0 2.0 3.1 127 141
- 0.47625 2 1 cbr 210 ------- 0 2.0 3.1 127 141
r 0.47668 2 1 cbr 210 ------- 0 2.0 3.1 124 138
+ 0.47668 1 3 cbr 210 ------- 0 2.0 3.1 124 138
- 0.47668 1 3 cbr 210 ------- 0 2.0 3.1 124 138
r 0.47711 1 3 cbr 210 ------- 0 2.0 3.1 121 135
+ 0.48 2 1 cbr 210 ------- 0 2.0 3.1 128 142
- 0.48 2 1 cbr 210 ------- 0 2.0 3.1 128 142
r 0.48043 2 1 cbr 210 ------- 0 2.0 3.1 125 139
+ 0.48043 1 3 cbr 210 ------- 0 2.0 3.1 125 139
- 0.48043 1 3 cbr 210 ------- 0 2.0 3.1 125 139
r 0.48086 1 3 cbr 210 ------- 0 2.0 3.1 122 136
+ 0.48375 2 1 cbr 210 ------- 0 2.0 3.1 129 143
- 0.48375 2 1 cbr 210 ------- 0 2.0 3.1 129 143
r 0.48418 2 1 cbr 210 ------- 0 2.0 3.1 126 140
+ 0.48418 1 3 cbr 210 ------- 0 2.0 3.1 126 140
- 0.48418 1 3 cbr 210 ------- 0 2.0 3.1 126 140
r 0.48461 1 3 cbr 210 ------- 0 2.0 3.1 123 137
+ 0.4875 2 1 cbr 210 ------- 0 2.0 3.1 130 144
- 0.4875 2 1 cbr 210 ------- 0 2.0 3.1 130 144
r 0.48793 2 1 cbr 210 ------- 0 2.0 3.1 127 141
+ 0.48793 1 3 cbr 210 ------- 0 2.0 3.1 127 141
- 0.48793 1 3 cbr 210 ------- 0 2.0 3.1 127 141
r 0.48836 1 3 cbr 210 ------- 0 2.0 3.1 124 138
+ 0.49125 2 1 cbr 210 ------- 0 2.0 3.1 131 145
- 0.49125 2 1 cbr 210 ------- 0 2.0 3.1 131 145
r 0.49168 2 1 cbr 210 ------- 0 2.0 3.1 128 142
+ 0.49168 1 3 cbr 210 ------- 0 2.0 3.1 128 142
- 0.49168 1 3 cbr 210 ------- 0 2.0 3.1 128 142
r 0.49211 1 3 cbr 210 ------- 0 2.0 3.1 125 139
+ 0.495 2 1 cbr 210 ------- 0 2.0 3.1 132 146
- 0.495 2 1 cbr 210 ------- 0 2.0 3.1 132 146
r 0.49543 2 1 cbr 210 ------- 0 2.0 3.1 129 143
+ 0.49543 1 3 cbr 210 ------- 0 2.0 3.1 129 143
- 0.49543 1 3 cbr 210 ------- 0 2.0 3.1 129 143
r 0.49586 1 3 cbr 210 ------- 0 2.0 3.1 126 140
+ 0.49875 2 1 cbr 210 ------- 0 2.0 3.1 133 147
- 0.49875 2 1 cbr 210 ------- 0 2.0 3.1 133 147
r 0.49918 2 1 cbr 210 ------- 0 2.0 3.1 130 144
+ 0.49918 1 3 cbr 210 ------- 0 2.0 3.1 130 144
- 0.49918 1 3 cbr 210 ------- 0 2.0 3.1 130 144
r 0.49961 1 3 cbr 210 ------- 0 2.0 3.1 127 141
+ 0.5025 2 1 cbr 210 ------- 0 2.0 3.1 134 148
- 0.5025 2 1 cbr 210 ------- 0 2.0 3.1 134 148
r 0.50293 2 1 cbr 210 ------- 0 2.0 3.1 131 145
+ 0.50293 1 3 cbr 210 ------- 0 2.0 3.1 131 145
- 0.50293 1 3 cbr 210 ------- 0 2.0 3.1 131 145
r 0.50336 1 3 cbr 210 ------- 0 2.0 3.1 128 142
+ 0.50625 2 1 cbr 210 ------- 0 2.0 3.1 135 149
- 0.50625 2 1 cbr 210 ------- 0 2.0 3.1 135 149
r 0.50668 2 1 cbr 210 ------- 0 2.0 3.1 132 146
+ 0.50668 1 3 cbr 210 ------- 0 2.0 3.1 132 146
- 0.50668 1 3 cbr 210 ------- 0 2.0 3.1 132 146
r 0.50711 1 3 cbr 210 ------- 0 2.0 3.1 129 143
+ 0.51 2 1 cbr 210 ------- 0 2.0 3.1 136 150
- 0.51 2 1 cbr 210 ------- 0 2.0 3.1 136 150
r 0.51043 2 1 cbr 210 ------- 0 2.0 3.1 133 147
+ 0.51043 1 3 cbr 210 ------- 0 2.0 3.1 133 147
- 0.51043 1 3 cbr 210 ------- 0 2.0 3.1 133 147
r 0.51086 1 3 cbr 210 ------- 0 2.0 3.1 130 144
+ 0.51375 2 1 cbr 210 ------- 0 2.0 3.1 137 151
- 0.51375 2 1 cbr 210 ------- 0 2.0 3.1 137 151
r 0.51418 2 1 cbr 210 ------- 0 2.0 3.1 134 148
+ 0.51418 1 3 cbr 210 ------- 0 2.0 3.1 134 148
- 0.51418 1 3 cbr 210 ------- 0 2.0 3.1 134 148
r 0.51461 1 3 cbr 210 ------- 0 2.0 3.1 131 145
+ 0.5175 2 1 cbr 210 ------- 0 2.0 3.1 138 152
- 0.5175 2 1 cbr 210 ------- 0 2.0 3.1 138 152
r 0.51793 2 1 cbr 210 ------- 0 2.0 3.1 135 149
+ 0.51793 1 3 cbr 210 ------- 0 2.0 3.1 135 149
- 0.51793 1 3 cbr 210 ------- 0 2.0 3.1 135 149
r 0.51836 1 3 cbr 210 ------- 0 2.0 3.1 132 146
+ 0.52125 2 1 cbr 210 ------- 0 2.0 3.1 139 153
- 0.52125 2 1 cbr 210 ------- 0 2.0 3.1 139 153
r 0.52168 2 1 cbr 210 ------- 0 2.0 3.1 136 150
+ 0.52168 1 3 cbr 210 ------- 0 2.0 3.1 136 150
- 0.52168 1 3 cbr 210 ------- 0 2.0 3.1 136 150
r 0.52211 1 3 cbr 210 ------- 0 2.0 3.1 133 147
+ 0.525 2 1 cbr 210 ------- 0 2.0 3.1 140 154
- 0.525 2 1 cbr 210 ------- 0 2.0 3.1 140 154
r 0.52543 2 1 cbr 210 ------- 0 2.0 3.1 137 151
+ 0.52543 1 3 cbr 210 ------- 0 2.0 3.1 137 151
- 0.52543 1 3 cbr 210 ------- 0 2.0 3.1 137 151
r 0.52586 1 3 cbr 210 ------- 0 2.0 3.1 134 148
+ 0.52875 2 1 cbr 210 ------- 0 2.0 3.1 141 155
- 0.52875 2 1 cbr 210 ------- 0 2.0 3.1 141 155
r 0.52918 2 1 cbr 210 ------- 0 2.0 3.1 138 152
+ 0.52918 1 3 cbr 210 ------- 0 2.0 3.1 138 152
- 0.52918 1 3 cbr 210 ------- 0 2.0 3.1 138 152
r 0.52961 1 3 cbr 210 ------- 0 2.0 3.1 135 149
+ 0.5325 2 1 cbr 210 ------- 0 2.0 3.1 142 156
- 0.5325 2 1 cbr 210 ------- 0 2.0 3.1 142 156
r 0.53293 2 1 cbr 210 ------- 0 2.0 3.1 139 153
+ 0.53293 1 3 cbr 210 ------- 0 2.0 3.1 139 153
- 0.53293 1 3 cbr 210 ------- 0 2.0 3.1 139 153
r 0.53336 1 3 cbr 210 ------- 0 2.0 3.1 136 150
+ 0.53625 2 1 cbr 210 ------- 0 2.0 3.1 143 157
- 0.53625 2 1 cbr 210 ------- 0 2.0 3.1 143 157
r 0.53668 2 1 cbr 210 ------- 0 2.0 3.1 140 154
+ 0.53668 1 3 cbr 210 ------- 0 2.0 3.1 140 154
- 0.53668 1 3 cbr 210 ------- 0 2.0 3.1 140 154
r 0.53711 1 3 cbr 210 ------- 0 2.0 3.1 137 151
+ 0.54 2 1 cbr 210 ------- 0 2.0 3.1 144 158
- 0.54 2 1 cbr 210 ------- 0 2.0 3.1 144 158
r 0.54043 2 1 cbr 210 ------- 0 2.0 3.1 141 155
+ 0.54043 1 3 cbr 210 ------- 0 2.0 3.1 141 155
- 0.54043 1 3 cbr 210 ------- 0 2.0 3.1 141 155
r 0.54086 1 3 cbr 210 ------- 0 2.0 3.1 138 152
+ 0.54375 2 1 cbr 210 ------- 0 2.0 3.1 145 159
- 0.54375 2 1 cbr 210 ------- 0 2.0 3.1 145 159
r 0.54418 2 1 cbr 210 ------- 0 2.0 3.1 142 156
+ 0.54418 1 3 cbr 210 ------- 0 2.0 3.1 142 156
- 0.54418 1 3 cbr 210 ------- 0 2.0 3.1 142 156
r 0.54461 1 3 cbr 210 ------- 0 2.0 3.1 139 153
+ 0.5475 2 1 cbr 210 ------- 0 2.0 3.1 146 160
- 0.5475 2 1 cbr 210 ------- 0 2.0 3.1 146 160
r 0.54793 2 1 cbr 210 ------- 0 2.0 3.1 143 157
+ 0.54793 1 3 cbr 210 ------- 0 2.0 3.1 143 157
- 0.54793 1 3 cbr 210 ------- 0 2.0 3.1 143 157
r 0.54836 1 3 cbr 210 ------- 0 2.0 3.1 140 154
+ 0.55125 2 1 cbr 210 ------- 0 2.0 3.1 147 161
- 0.55125 2 1 cbr 210 ------- 0 2.0 3.1 147 161
r 0.55168 2 1 cbr 210 ------- 0 2.0 3.1 144 158
+ 0.55168 1 3 cbr 210 ------- 0 2.0 3.1 144 158
- 0.55168 1 3 cbr 210 ------- 0 2.0 3.1 144 158
r 0.55211 1 3 cbr 210 ------- 0 2.0 3.1 141 155
+ 0.555 2 1 cbr 210 ------- 0 2.0 3.1 148 162
- 0.555 2 1 cbr 210 ------- 0 2.0 3.1 148 162
r 0.55543 2 1 cbr 210 ------- 0 2.0 3.1 145 159
+ 0.55543 1 3 cbr 210 ------- 0 2.0 3.1 145 159
- 0.55543 1 3 cbr 210 ------- 0 2.0 3.1 145 159
r 0.55586 1 3 cbr 210 ------- 0 2.0 3.1 142 156
+ 0.55875 2 1 cbr 210 ------- 0 2.0 3.1 149 163
- 0.55875 2 1 cbr 210 ------- 0 2.0 3.1 149 163
r 0.55918 2 1 cbr 210 ------- 0 2.0 3.1 146 160
+ 0.55918 1 3 cbr 210 ------- 0 2.0 3.1 146 160
- 0.55918 1 3 cbr 210 ------- 0 2.0 3.1 146 160
r 0.55961 1 3 cbr 210 ------- 0 2.0 3.1 143 157
+ 0.5625 2 1 cbr 210 ------- 0 2.0 3.1 150 164
- 0.5625 2 1 cbr 210 ------- 0 2.0 3.1 150 164
r 0.56293 2 1 cbr 210 ------- 0 2.0 3.1 147 161
+ 0.56293 1 3 cbr 210 ------- 0 2.0 3.1 147 161
- 0.56293 1 3 cbr 210 ------- 0 2.0 3.1 147 161
r 0.56336 1 3 cbr 210 ------- 0 2.0 3.1 144 158
+ 0.56625 2 1 cbr 210 ------- 0 2.0 3.1 151 165
- 0.56625 2 1 cbr 210 ------- 0 2.0 3.1 151 165
r 0.56668 2 1 cbr 210 ------- 0 2.0 3.1 148 162
+ 0.56668 1 3 cbr 210 ------- 0 2.0 3.1 148 162
- 0.56668 1 3 cbr 210 ------- 0 2.0 3.1 148 162
r 0.56711 1 3 cbr 210 ------- 0 2.0 3.1 145 159
+ 0.57 2 1 cbr 210 ------- 0 2.0 3.1 152 166
- 0.57 2 1 cbr 210 ------- 0 2.0 3.1 152 166
r 0.57043 2 1 cbr 210 ------- 0 2.0 3.1 149 163
+ 0.57043 1 3 cbr 210 ------- 0 2.0 3.1 149 163
- 0.57043 1 3 cbr 210 ------- 0 2.0 3.1 149 163
r 0.57086 1 3 cbr 210 ------- 0 2.0 3.1 146 160
+ 0.57375 2 1 cbr 210 ------- 0 2.0 3.1 153 167
- 0.57375 2 1 cbr 210 ------- 0 2.0 3.1 153 167
r 0.57418 2 1 cbr 210 ------- 0 2.0 3.1 150 164
+ 0.57418 1 3 cbr 210 ------- 0 2.0 3.1 150 164
- 0.57418 1 3 cbr 210 ------- 0 2.0 3.1 150 164
r 0.57461 1 3 cbr 210 ------- 0 2.0 3.1 147 161
+ 0.5775 2 1 cbr 210 ------- 0 2.0 3.1 154 168
- 0.5775 2 1 cbr 210 ------- 0 2.0 3.1 154 168
r 0.57793 2 1 cbr 210 ------- 0 2.0 3.1 151 165
+ 0.57793 1 3 cbr 210 ------- 0 2.0 3.1 151 165
- 0.57793 1 3 cbr 210 ------- 0 2.0 3.1 151 165
r 0.57836 1 3 cbr 210 ------- 0 2.0 3.1 148 162
+ 0.58125 2 1 cbr 210 ------- 0 2.0 3.1 155 169
- 0.58125 2 1 cbr 210 ------- 0 2.0 3.1 155 169
r 0.58168 2 1 cbr 210 ------- 0 2.0 3.1 152 166
+ 0.58168 1 3 cbr 210 ------- 0 2.0 3.1 152 166
- 0.58168 1 3 cbr 210 ------- 0 2.0 3.1 152 166
r 0.58211 1 3 cbr 210 ------- 0 2.0 3.1 149 163
+ 0.585 2 1 cbr 210 ------- 0 2.0 3.1 156 170
- 0.585 2 1 cbr 210 ------- 0 2.0 3.1 156 170
r 0.58543 2 1 cbr 210 ------- 0 2.0 3.1 153 167
+ 0.58543 1 3 cbr 210 ------- 0 2.0 3.1 153 167
- 0.58543 1 3 cbr 210 ------- 0 2.0 3.1 153 167
r 0.58586 1 3 cbr 210 ------- 0 2.0 3.1 150 164
+ 0.58875 2 1 cbr 210 ------- 0 2.0 3.1 157 171
- 0.58875 2 1 cbr 210 ------- 0 2.0 3.1 157 171
r 0.58918 2 1 cbr 210 ------- 0 2.0 3.1 154 168
+ 0.58918 1 3 cbr 210 ------- 0 2.0 3.1 154 168
- 0.58918 1 3 cbr 210 ------- 0 2.0 3.1 154 168
r 0.58961 1 3 cbr 210 ------- 0 2.0 3.1 151 165
+ 0.5925 2 1 cbr 210 ------- 0 2.0 3.1 158 172
- 0.5925 2 1 cbr 210 ------- 0 2.0 3.1 158 172
r 0.59293 2 1 cbr 210 ------- 0 2.0 3.1 155 169
+ 0.59293 1 3 cbr 210 ------- 0 2.0 3.1 155 169
- 0.59293 1 3 cbr 210 ------- 0 2.0 3.1 155 169
r 0.59336 1 3 cbr 210 ------- 0 2.0 3.1 152 166
+ 0.59625 2 1 cbr 210 ------- 0 2.0 3.1 159 173
- 0.59625 2 1 cbr 210 ------- 0 2.0 3.1 159 173
r 0.59668 2 1 cbr 210 ------- 0 2.0 3.1 156 170
+ 0.59668 1 3 cbr 210 ------- 0 2.0 3.1 156 170
- 0.59668 1 3 cbr 210 ------- 0 2.0 3.1 156 170
r 0.59711 1 3 cbr 210 ------- 0 2.0 3.1 153 167
+ 0.6 2 1 cbr 210 ------- 0 2.0 3.1 160 174
- 0.6 2 1 cbr 210 ------- 0 2.0 3.1 160 174
r 0.60043 2 1 cbr 210 ------- 0 2.0 3.1 157 171
+ 0.60043 1 3 cbr 210 ------- 0 2.0 3.1 157 171
- 0.60043 1 3 cbr 210 ------- 0 2.0 3.1 157 171
r 0.60086 1 3 cbr 210 ------- 0 2.0 3.1 154 168
+ 0.60375 2 1 cbr 210 ------- 0 2.0 3.1 161 175
- 0.60375 2 1 cbr 210 ------- 0 2.0 3.1 161 175
r 0.60418 2 1 cbr 210 ------- 0 2.0 3.1 158 172
+ 0.60418 1 3 cbr 210 ------- 0 2.0 3.1 158 172
- 0.60418 1 3 cbr 210 ------- 0 2.0 3.1 158 172
r 0.60461 1 3 cbr 210 ------- 0 2.0 3.1 155 169
+ 0.6075 2 1 cbr 210 ------- 0 2.0 3.1 162 176
- 0.6075 2 1 cbr 210 ------- 0 2.0 3.1 162 176
r 0.60793 2 1 cbr 210 ------- 0 2.0 3.1 159 173
+ 0.60793 1 3 cbr 210 ------- 0 2.0 3.1 159 173
- 0.60793 1 3 cbr 210 ------- 0 2.0 3.1 159 173
r 0.60836 1 3 cbr 210 ------- 0 2.0 3.1 156 170
+ 0.61125 2 1 cbr 210 ------- 0 2.0 3.1 163 177
- 0.61125 2 1 cbr 210 ------- 0 2.0 3.1 163 177
r 0.61168 2 1 cbr 210 ------- 0 2.0 3.1 160 174
+ 0.61168 1 3 cbr 210 ------- 0 2.0 3.1 160 174
- 0.61168 1 3 cbr 210 ------- 0 2.0 3.1 160 174
r 0.61211 1 3 cbr 210 ------- 0 2.0 3.1 157 171
+ 0.615 2 1 cbr 210 ------- 0 2.0 3.1 164 178
- 0.615 2 1 cbr 210 ------- 0 2.0 3.1 164 178
r 0.61543 2 1 cbr 210 ------- 0 2.0 3.1 161 175
+ 0.61543 1 3 cbr 210 ------- 0 2.0 3.1 161 175
- 0.61543 1 3 cbr 210 ------- 0 2.0 3.1 161 175
r 0.61586 1 3 cbr 210 ------- 0 2.0 3.1 158 172
+ 0.61875 2 1 cbr 210 ------- 0 2.0 3.1 165 179
- 0.61875 2 1 cbr 210 ------- 0 2.0 3.1 165 179
r 0.61918 2 1 cbr 210 ------- 0 2.0 3.1 162 176
+ 0.61918 1 3 cbr 210 ------- 0 2.0 3.1 162 176
- 0.61918 1 3 cbr 210 ------- 0 2.0 3.1 162 176
r 0.61961 1 3 cbr 210 ------- 0 2.0 3.1 159 173
+ 0.6225 2 1 cbr 210 ------- 0 2.0 3.1 166 180
- 0.6225 2 1 cbr 210 ------- 0 2.0 3.1 166 180
r 0.62293 2 1 cbr 210 ------- 0 2.0 3.1 163 177
+ 0.62293 1 3 cbr 210 ------- 0 2.0 3.1 163 177
- 0.62293 1 3 cbr 210 ------- 0 2.0 3.1 163 177
r 0.62336 1 3 cbr 210 ------- 0 2.0 3.1 160 174
+ 0.62625 2 1 cbr 210 ------- 0 2.0 3.1 167 181
- 0.62625 2 1 cbr 210 ------- 0 2.0 3.1 167 181
r 0.62668 2 1 cbr 210 ------- 0 2.0 3.1 164 178
+ 0.62668 1 3 cbr 210 ------- 0 2.0 3.1 164 178
- 0.62668 1 3 cbr 210 ------- 0 2.0 3.1 164 178
r 0.62711 1 3 cbr 210 ------- 0 2.0 3.1 161 175
+ 0.63 2 1 cbr 210 ------- 0 2.0 3.1 168 182
- 0.63 2 1 cbr 210 ------- 0 2.0 3.1 168 182
r 0.63043 2 1 cbr 210 ------- 0 2.0 3.1 165 179
+ 0.63043 1 3 cbr 210 ------- 0 2.0 3.1 165 179
- 0.63043 1 3 cbr 210 ------- 0 2.0 3.1 165 179
r 0.63086 1 3 cbr 210 ------- 0 2.0 3.1 162 176
+ 0.63375 2 1 cbr 210 ------- 0 2.0 3.1 169 183
- 0.63375 2 1 cbr 210 ------- 0 2.0 3.1 169 183
r 0.63418 2 1 cbr 210 ------- 0 2.0 3.1 166 180
+ 0.63418 1 3 cbr 210 ------- 0 2.0 3.1 166 180
- 0.63418 1 3 cbr 210 ------- 0 2.0 3.1 166 180
r 0.63461 1 3 cbr 210 ------- 0 2.0 3.1 163 177
+ 0.6375 2 1 cbr 210 ------- 0 2.0 3.1 170 184
- 0.6375 2 1 cbr 210 ------- 0 2.0 3.1 170 184
r 0.63793 2 1 cbr 210 ------- 0 2.0 3.1 167 181
+ 0.63793 1 3 cbr 210 ------- 0 2.0 3.1 167 181
- 0.63793 1 3 cbr 210 ------- 0 2.0 3.1 167 181
r 0.63836 1 3 cbr 210 ------- 0 2.0 3.1 164 178
+ 0.64125 2 1 cbr 210 ------- 0 2.0 3.1 171 185
- 0.64125 2 1 cbr 210 ------- 0 2.0 3.1 171 185
r 0.64168 2 1 cbr 210 ------- 0 2.0 3.1 168 182
+ 0.64168 1 3 cbr 210 ------- 0 2.0 3.1 168 182
- 0.64168 1 3 cbr 210 ------- 0 2.0 3.1 168 182
r 0.64211 1 3 cbr 210 ------- 0 2.0 3.1 165 179
+ 0.645 2 1 cbr 210 ------- 0 2.0 3.1 172 186
- 0.645 2 1 cbr 210 ------- 0 2.0 3.1 172 186
r 0.64543 2 1 cbr 210 ------- 0 2.0 3.1 169 183
+ 0.64543 1 3 cbr 210 ------- 0 2.0 3.1 169 183
- 0.64543 1 3 cbr 210 ------- 0 2.0 3.1 169 183
r 0.64586 1 3 cbr 210 ------- 0 2.0 3.1 166 180
+ 0.64875 2 1 cbr 210 ------- 0 2.0 3.1 173 187
- 0.64875 2 1 cbr 210 ------- 0 2.0 3.1 173 187
r 0.64918 2 1 cbr 210 ------- 0 2.0 3.1 170 184
+ 0.64918 1 3 cbr 210 ------- 0 2.0 3.1 170 184
- 0.64918 1 3 cbr 210 ------- 0 2.0 3.1 170 184
r 0.64961 1 3 cbr 210 ------- 0 2.0 3.1 167 181
+ 0.6525 2 1 cbr 210 ------- 0 2.0 3.1 174 188
- 0.6525 2 1 cbr 210 ------- 0 2.0 3.1 174 188
r 0.65293 2 1 cbr 210 ------- 0 2.0 3.1 171 185
+ 0.65293 1 3 cbr 210 ------- 0 2.0 3.1 171 185
- 0.65293 1 3 cbr 210 ------- 0 2.0 3.1 171 185
r 0.65336 1 3 cbr 210 ------- 0 2.0 3.1 168 182
+ 0.65625 2 1 cbr 210 ------- 0 2.0 3.1 175 189
- 0.65625 2 1 cbr 210 ------- 0 2.0 3.1 175 189
r 0.65668 2 1 cbr 210 ------- 0 2.0 3.1 172 186
+ 0.65668 1 3 cbr 210 ------- 0 2.0 3.1 172 186
- 0.65668 1 3 cbr 210 ------- 0 2.0 3.1 172 186
r 0.65711 1 3 cbr 210 ------- 0 2.0 3.1 169 183
+ 0.66 2 1 cbr 210 ------- 0 2.0 3.1 176 190
- 0.66 2 1 cbr 210 ------- 0 2.0 3.1 176 190
r 0.66043 2 1 cbr 210 ------- 0 2.0 3.1 173 187
+ 0.66043 1 3 cbr 210 ------- 0 2.0 3.1 173 187
- 0.66043 1 3 cbr 210 ------- 0 2.0 3.1 173 187
r 0.66086 1 3 cbr 210 ------- 0 2.0 3.1 170 184
+ 0.66375 2 1 cbr 210 ------- 0 2.0 3.1 177 191
- 0.66375 2 1 cbr 210 ------- 0 2.0 3.1 177 191
r 0.66418 2 1 cbr 210 ------- 0 2.0 3.1 174 188
+ 0.66418 1 3 cbr 210 ------- 0 2.0 3.1 174 188
- 0.66418 1 3 cbr 210 ------- 0 2.0 3.1 174 188
r 0.66461 1 3 cbr 210 ------- 0 2.0 3.1 171 185