V -t * -v 1.0a5 -a 0
A -t * -n 1 -p 0 -o 0x7fffffff -c 30 -a 1
A -t * -h 1 -m 1073741823 -s 0
n -t * -a 0 -s 0 -S UP -v circle -c black -i black
n -t * -a 1 -s 1 -S UP -v circle -c black -i black
n -t * -a 2 -s 2 -S UP -v circle -c black -i black
n -t * -a 3 -s 3 -S UP -v circle -c black -i black
l -t * -s 2 -d 0 -S UP -r 1000000 -D 0.01 -c black
l -t * -s 0 -d 1 -S UP -r 1000000 -D 0.01 -c black -o right-down
l -t * -s 1 -d 3 -S UP -r 1000000 -D 0.01 -c black -o right
l -t * -s 2 -d 1 -S UP -r 1000000 -D 0.01 -c black -o right-up
+ -t 0.000169788487334637 -s 0 -d 1 -p rtProtoDV -e 4 -c 0 -i 2 -a 0 -x {0.2 1.1 -1 ------- null}
- -t 0.000169788487334637 -s 0 -d 1 -p rtProtoDV -e 4 -c 0 -i 2 -a 0 -x {0.2 1.1 -1 ------- null}
h -t 0.000169788487334637 -s 0 -d 1 -p rtProtoDV -e 4 -c 0 -i 2 -a 0 -x {0.2 1.1 -1 ------- null}
+ -t 0.000169788487334637 -s 0 -d 2 -p rtProtoDV -e 4 -c 0 -i 3 -a 0 -x {0.2 2.2 -1 ------- null}
- -t 0.000169788487334637 -s 0 -d 2 -p rtProtoDV -e 4 -c 0 -i 3 -a 0 -x {0.2 2.2 -1 ------- null}
h -t 0.000169788487334637 -s 0 -d 2 -p rtProtoDV -e 4 -c 0 -i 3 -a 0 -x {0.2 2.2 -1 ------- null}
+ -t 0.00710233021858257 -s 2 -d 0 -p rtProtoDV -e 4 -c 0 -i 5 -a 0 -x {2.2 0.2 -1 ------- null}
- -t 0.00710233021858257 -s 2 -d 0 -p rtProtoDV -e 4 -c 0 -i 5 -a 0 -x {2.2 0.2 -1 ------- null}
h -t 0.00710233021858257 -s 2 -d 0 -p rtProtoDV -e 4 -c 0 -i 5 -a 0 -x {2.2 0.2 -1 ------- null}
+ -t 0.00710233021858257 -s 2 -d 1 -p rtProtoDV -e 4 -c 0 -i 6 -a 0 -x {2.2 1.1 -1 ------- null}
- -t 0.00710233021858257 -s 2 -d 1 -p rtProtoDV -e 4 -c 0 -i 6 -a 0 -x {2.2 1.1 -1 ------- null}
h -t 0.00710233021858257 -s 2 -d 1 -p rtProtoDV -e 4 -c 0 -i 6 -a 0 -x {2.2 1.1 -1 ------- null}
r -t 0.0102017884873346 -s 0 -d 1 -p rtProtoDV -e 4 -c 0 -i 2 -a 0 -x {0.2 1.1 -1 ------- null}
r -t 0.0102017884873346 -s 0 -d 2 -p rtProtoDV -e 4 -c 0 -i 3 -a 0 -x {0.2 2.2 -1 ------- null}
r -t 0.0171343302185826 -s 2 -d 0 -p rtProtoDV -e 4 -c 0 -i 5 -a 0 -x {2.2 0.2 -1 ------- null}
r -t 0.0171343302185826 -s 2 -d 1 -p rtProtoDV -e 4 -c 0 -i 6 -a 0 -x {2.2 1.1 -1 ------- null}
+ -t 0.04406133552271 -s 3 -d 1 -p rtProtoDV -e 4 -c 0 -i 17 -a 0 -x {3.3 1.1 -1 ------- null}
- -t 0.04406133552271 -s 3 -d 1 -p rtProtoDV -e 4 -c 0 -i 17 -a 0 -x {3.3 1.1 -1 ------- null}
h -t 0.04406133552271 -s 3 -d 1 -p rtProtoDV -e 4 -c 0 -i 17 -a 0 -x {3.3 1.1 -1 ------- null}
r -t 0.05409333552271 -s 3 -d 1 -p rtProtoDV -e 4 -c 0 -i 17 -a 0 -x {3.3 1.1 -1 ------- null}
+ -t 0.277940357931862 -s 1 -d 0 -p rtProtoDV -e 4 -c 0 -i 81 -a 0 -x {1.1 0.2 -1 ------- null}
- -t 0.277940357931862 -s 1 -d 0 -p rtProtoDV -e 4 -c 0 -i 81 -a 0 -x {1.1 0.2 -1 ------- null}
h -t 0.277940357931862 -s 1 -d 0 -p rtProtoDV -e 4 -c 0 -i 81 -a 0 -x {1.1 0.2 -1 ------- null}
+ -t 0.277940357931862 -s 1 -d 2 -p rtProtoDV -e 4 -c 0 -i 82 -a 0 -x {1.1 2.2 -1 ------- null}
- -t 0.277940357931862 -s 1 -d 2 -p rtProtoDV -e 4 -c 0 -i 82 -a 0 -x {1.1 2.2 -1 ------- null}
h -t 0.277940357931862 -s 1 -d 2 -p rtProtoDV -e 4 -c 0 -i 82 -a 0 -x {1.1 2.2 -1 ------- null}
+ -t 0.277940357931862 -s 1 -d 3 -p rtProtoDV -e 4 -c 0 -i 83 -a 0 -x {1.1 3.3 -1 ------- null}
- -t 0.277940357931862 -s 1 -d 3 -p rtProtoDV -e 4 -c 0 -i 83 -a 0 -x {1.1 3.3 -1 ------- null}
h -t 0.277940357931862 -s 1 -d 3 -p rtProtoDV -e 4 -c 0 -i 83 -a 0 -x {1.1 3.3 -1 ------- null}
r -t 0.287972357931862 -s 1 -d 0 -p rtProtoDV -e 4 -c 0 -i 81 -a 0 -x {1.1 0.2 -1 ------- null}
+ -t 0.287972357931862 -s 0 -d 1 -p rtProtoDV -e 4 -c 0 -i 86 -a 0 -x {0.2 1.1 -1 ------- null}
- -t 0.287972357931862 -s 0 -d 1 -p rtProtoDV -e 4 -c 0 -i 86 -a 0 -x {0.2 1.1 -1 ------- null}
h -t 0.287972357931862 -s 0 -d 1 -p rtProtoDV -e 4 -c 0 -i 86 -a 0 -x {0.2 1.1 -1 ------- null}
+ -t 0.287972357931862 -s 0 -d 2 -p rtProtoDV -e 4 -c 0 -i 87 -a 0 -x {0.2 2.2 -1 ------- null}
- -t 0.287972357931862 -s 0 -d 2 -p rtProtoDV -e 4 -c 0 -i 87 -a 0 -x {0.2 2.2 -1 ------- null}
h -t 0.287972357931862 -s 0 -d 2 -p rtProtoDV -e 4 -c 0 -i 87 -a 0 -x {0.2 2.2 -1 ------- null}
r -t 0.287972357931862 -s 1 -d 2 -p rtProtoDV -e 4 -c 0 -i 82 -a 0 -x {1.1 2.2 -1 ------- null}
+ -t 0.287972357931862 -s 2 -d 0 -p rtProtoDV -e 4 -c 0 -i 88 -a 0 -x {2.2 0.2 -1 ------- null}
- -t 0.287972357931862 -s 2 -d 0 -p rtProtoDV -e 4 -c 0 -i 88 -a 0 -x {2.2 0.2 -1 ------- null}
h -t 0.287972357931862 -s 2 -d 0 -p rtProtoDV -e 4 -c 0 -i 88 -a 0 -x {2.2 0.2 -1 ------- null}
+ -t 0.287972357931862 -s 2 -d 1 -p rtProtoDV -e 4 -c 0 -i 89 -a 0 -x {2.2 1.1 -1 ------- null}
- -t 0.287972357931862 -s 2 -d 1 -p rtProtoDV -e 4 -c 0 -i 89 -a 0 -x {2.2 1.1 -1 ------- null}
h -t 0.287972357931862 -s 2 -d 1 -p rtProtoDV -e 4 -c 0 -i 89 -a 0 -x {2.2 1.1 -1 ------- null}
r -t 0.287972357931862 -s 1 -d 3 -p rtProtoDV -e 4 -c 0 -i 83 -a 0 -x {1.1 3.3 -1 ------- null}
+ -t 0.287972357931862 -s 3 -d 1 -p rtProtoDV -e 4 -c 0 -i 90 -a 0 -x {3.3 1.1 -1 ------- null}
- -t 0.287972357931862 -s 3 -d 1 -p rtProtoDV -e 4 -c 0 -i 90 -a 0 -x {3.3 1.1 -1 ------- null}
h -t 0.287972357931862 -s 3 -d 1 -p rtProtoDV -e 4 -c 0 -i 90 -a 0 -x {3.3 1.1 -1 ------- null}
+ -t 0.28875 -s 2 -d 1 -p cbr -e 210 -c 0 -i 91 -a 0 -x {2.0 3.1 77 ------- null}
- -t 0.28875 -s 2 -d 1 -p cbr -e 210 -c 0 -i 91 -a 0 -x {2.0 3.1 77 ------- null}
h -t 0.28875 -s 2 -d 1 -p cbr -e 210 -c 0 -i 91 -a 0 -x {2.0 3.1 -1 ------- null}
+ -t 0.2925 -s 2 -d 1 -p cbr -e 210 -c 0 -i 92 -a 0 -x {2.0 3.1 78 ------- null}
- -t 0.2925 -s 2 -d 1 -p cbr -e 210 -c 0 -i 92 -a 0 -x {2.0 3.1 78 ------- null}
h -t 0.2925 -s 2 -d 1 -p cbr -e 210 -c 0 -i 92 -a 0 -x {2.0 3.1 -1 ------- null}
+ -t 0.29625 -s 2 -d 1 -p cbr -e 210 -c 0 -i 93 -a 0 -x {2.0 3.1 79 ------- null}
- -t 0.29625 -s 2 -d 1 -p cbr -e 210 -c 0 -i 93 -a 0 -x {2.0 3.1 79 ------- null}
h -t 0.29625 -s 2 -d 1 -p cbr -e 210 -c 0 -i 93 -a 0 -x {2.0 3.1 -1 ------- null}
r -t 0.298004357931862 -s 0 -d 1 -p rtProtoDV -e 4 -c 0 -i 86 -a 0 -x {0.2 1.1 -1 ------- null}
r -t 0.298004357931862 -s 0 -d 2 -p rtProtoDV -e 4 -c 0 -i 87 -a 0 -x {0.2 2.2 -1 ------- null}
r -t 0.298004357931862 -s 2 -d 0 -p rtProtoDV -e 4 -c 0 -i 88 -a 0 -x {2.2 0.2 -1 ------- null}
r -t 0.298004357931862 -s 2 -d 1 -p rtProtoDV -e 4 -c 0 -i 89 -a 0 -x {2.2 1.1 -1 ------- null}
r -t 0.298004357931862 -s 3 -d 1 -p rtProtoDV -e 4 -c 0 -i 90 -a 0 -x {3.3 1.1 -1 ------- null}
+ -t 0.3 -s 2 -d 1 -p cbr -e 210 -c 0 -i 94 -a 0 -x {2.0 3.1 80 ------- null}
- -t 0.3 -s 2 -d 1 -p cbr -e 210 -c 0 -i 94 -a 0 -x {2.0 3.1 80 ------- null}
h -t 0.3 -s 2 -d 1 -p cbr -e 210 -c 0 -i 94 -a 0 -x {2.0 3.1 -1 ------- null}
r -t 0.30043 -s 2 -d 1 -p cbr -e 210 -c 0 -i 91 -a 0 -x {2.0 3.1 77 ------- null}
+ -t 0.30043 -s 1 -d 3 -p cbr -e 210 -c 0 -i 91 -a 0 -x {2.0 3.1 77 ------- null}
- -t 0.30043 -s 1 -d 3 -p cbr -e 210 -c 0 -i 91 -a 0 -x {2.0 3.1 77 ------- null}
h -t 0.30043 -s 1 -d 3 -p cbr -e 210 -c 0 -i 91 -a 0 -x {2.0 3.1 -1 ------- null}
+ -t 0.30375 -s 2 -d 1 -p cbr -e 210 -c 0 -i 95 -a 0 -x {2.0 3.1 81 ------- null}
- -t 0.30375 -s 2 -d 1 -p cbr -e 210 -c 0 -i 95 -a 0 -x {2.0 3.1 81 ------- null}
h -t 0.30375 -s 2 -d 1 -p cbr -e 210 -c 0 -i 95 -a 0 -x {2.0 3.1 -1 ------- null}
r -t 0.30418 -s 2 -d 1 -p cbr -e 210 -c 0 -i 92 -a 0 -x {2.0 3.1 78 ------- null}
+ -t 0.30418 -s 1 -d 3 -p cbr -e 210 -c 0 -i 92 -a 0 -x {2.0 3.1 78 ------- null}
- -t 0.30418 -s 1 -d 3 -p cbr -e 210 -c 0 -i 92 -a 0 -x {2.0 3.1 78 ------- null}
h -t 0.30418 -s 1 -d 3 -p cbr -e 210 -c 0 -i 92 -a 0 -x {2.0 3.1 -1 ------- null}
+ -t 0.3075 -s 2 -d 1 -p cbr -e 210 -c 0 -i 96 -a 0 -x {2.0 3.1 82 ------- null}
- -t 0.3075 -s 2 -d 1 -p cbr -e 210 -c 0 -i 96 -a 0 -x {2.0 3.1 82 ------- null}
h -t 0.3075 -s 2 -d 1 -p cbr -e 210 -c 0 -i 96 -a 0 -x {2.0 3.1 -1 ------- null}
r -t 0.30793 -s 2 -d 1 -p cbr -e 210 -c 0 -i 93 -a 0 -x {2.0 3.1 79 ------- null}
+ -t 0.30793 -s 1 -d 3 -p cbr -e 210 -c 0 -i 93 -a 0 -x {2.0 3.1 79 ------- null}
- -t 0.30793 -s 1 -d 3 -p cbr -e 210 -c 0 -i 93 -a 0 -x {2.0 3.1 79 ------- null}
h -t 0.30793 -s 1 -d 3 -p cbr -e 210 -c 0 -i 93 -a 0 -x {2.0 3.1 -1 ------- null}
+ -t 0.31125 -s 2 -d 1 -p cbr -e 210 -c 0 -i 97 -a 0 -x {2.0 3.1 83 ------- null}
- -t 0.31125 -s 2 -d 1 -p cbr -e 210 -c 0 -i 97 -a 0 -x {2.0 3.1 83 ------- null}
h -t 0.31125 -s 2 -d 1 -p cbr -e 210 -c 0 -i 97 -a 0 -x {2.0 3.1 -1 ------- null}
r -t 0.31168 -s 2 -d 1 -p cbr -e 210 -c 0 -i 94 -a 0 -x {2.0 3.1 80 ------- null}
+ -t 0.31168 -s 1 -d 3 -p cbr -e 210 -c 0 -i 94 -a 0 -x {2.0 3.1 80 ------- null}
- -t 0.31168 -s 1 -d 3 -p cbr -e 210 -c 0 -i 94 -a 0 -x {2.0 3.1 80 ------- null}
h -t 0.31168 -s 1 -d 3 -p cbr -e 210 -c 0 -i 94 -a 0 -x {2.0 3.1 -1 ------- null}
r -t 0.31211 -s 1 -d 3 -p cbr -e 210 -c 0 -i 91 -a 0 -x {2.0 3.1 77 ------- null}
+ -t 0.315 -s 2 -d 1 -p cbr -e 210 -c 0 -i 98 -a 0 -x {2.0 3.1 84 ------- null}
- -t 0.315 -s 2 -d 1 -p cbr -e 210 -c 0 -i 98 -a 0 -x {2.0 3.1 84 ------- null}
h -t 0.315 -s 2 -d 1 -p cbr -e 210 -c 0 -i 98 -a 0 -x {2.0 3.1 -1 ------- null}
r -t 0.31543 -s 2 -d 1 -p cbr -e 210 -c 0 -i 95 -a 0 -x {2.0 3.1 81 ------- null}
+ -t 0.31543 -s 1 -d 3 -p cbr -e 210 -c 0 -i 95 -a 0 -x {2.0 3.1 81 ------- null}
- -t 0.31543 -s 1 -d 3 -p cbr -e 210 -c 0 -i 95 -a 0 -x {2.0 3.1 81 ------- null}
h -t 0.31543 -s 1 -d 3 -p cbr -e 210 -c 0 -i 95 -a 0 -x {2.0 3.1 -1 ------- null}
r -t 0.31586 -s 1 -d 3 -p cbr -e 210 -c 0 -i 92 -a 0 -x {2.0 3.1 78 ------- null}
+ -t 0.31875 -s 2 -d 1 -p cbr -e 210 -c 0 -i 99 -a 0 -x {2.0 3.1 85 ------- null}
- -t 0.31875 -s 2 -d 1 -p cbr -e 210 -c 0 -i 99 -a 0 -x {2.0 3.1 85 ------- null}
h -t 0.31875 -s 2 -d 1 -p cbr -e 210 -c 0 -i 99 -a 0 -x {2.0 3.1 -1 ------- null}
r -t 0.31918 -s 2 -d 1 -p cbr -e 210 -c 0 -i 96 -a 0 -x {2.0 3.1 82 ------- null}
+ -t 0.31918 -s 1 -d 3 -p cbr -e 210 -c 0 -i 96 -a 0 -x {2.0 3.1 82 ------- null}
- -t 0.31918 -s 1 -d 3 -p cbr -e 210 -c 0 -i 96 -a 0 -x {2.0 3.1 82 ------- null}
h -t 0.31918 -s 1 -d 3 -p cbr -e 210 -c 0 -i 96 -a 0 -x {2.0 3.1 -1 ------- null}
r -t 0.31961 -s 1 -d 3 -p cbr -e 210 -c 0 -i 93 -a 0 -x {2.0 3.1 79 ------- null}
+ -t 0.3225 -s 2 -d 1 -p cbr -e 210 -c 0 -i 100 -a 0 -x {2.0 3.1 86 ------- null}
- -t 0.3225 -s 2 -d 1 -p cbr -e 210 -c 0 -i 100 -a 0 -x {2.0 3.1 86 ------- null}
h -t 0.3225 -s 2 -d 1 -p cbr -e 210 -c 0 -i 100 -a 0 -x {2.0 3.1 -1 ------- null}
r -t 0.32293 -s 2 -d 1 -p cbr -e 210 -c 0 -i 97 -a 0 -x {2.0 3.1 83 ------- null}
+ -t 0.32293 -s 1 -d 3 -p cbr -e 210 -c 0 -i 97 -a 0 -x {2.0 3.1 83 ------- null}
- -t 0.32293 -s 1 -d 3 -p cbr -e 210 -c 0 -i 97 -a 0 -x {2.0 3.1 83 ------- null}
h -t 0.32293 -s 1 -d 3 -p cbr -e 210 -c 0 -i 97 -a 0 -x {2.0 3.1 -1 ------- null}
r -t 0.32336 -s 1 -d 3 -p cbr -e 210 -c 0 -i 94 -a 0 -x {2.0 3.1 80 ------- null}
+ -t 0.32625 -s 2 -d 1 -p cbr -e 210 -c 0 -i 101 -a 0 -x {2.0 3.1 87 ------- null}
- -t 0.32625 -s 2 -d 1 -p cbr -e 210 -c 0 -i 101 -a 0 -x {2.0 3.1 87 ------- null}
h -t 0.32625 -s 2 -d 1 -p cbr -e 210 -c 0 -i 101 -a 0 -x {2.0 3.1 -1 ------- null}
r -t 0.32668 -s 2 -d 1 -p cbr -e 210 -c 0 -i 98 -a 0 -x {2.0 3.1 84 ------- null}
+ -t 0.32668 -s 1 -d 3 -p cbr -e 210 -c 0 -i 98 -a 0 -x {2.0 3.1 84 ------- null}
- -t 0.32668 -s 1 -d 3 -p cbr -e 210 -c 0 -i 98 -a 0 -x {2.0 3.1 84 ------- null}
h -t 0.32668 -s 1 -d 3 -p cbr -e 210 -c 0 -i 98 -a 0 -x {2.0 3.1 -1 ------- null}
r -t 0.32711 -s 1 -d 3 -p cbr -e 210 -c 0 -i 95 -a 0 -x {2.0 3.1 81 ------- null}
+ -t 0.33 -s 2 -d 1 -p cbr -e 210 -c 0 -i 102 -a 0 -x {2.0 3.1 88 ------- null}
- -t 0.33 -s 2 -d 1 -p cbr -e 210 -c 0 -i 102 -a 0 -x {2.0 3.1 88 ------- null}
h -t 0.33 -s 2 -d 1 -p cbr -e 210 -c 0 -i 102 -a 0 -x {2.0 3.1 -1 ------- null}
r -t 0.33043 -s 2 -d 1 -p cbr -e 210 -c 0 -i 99 -a 0 -x {2.0 3.1 85 ------- null}
+ -t 0.33043 -s 1 -d 3 -p cbr -e 210 -c 0 -i 99 -a 0 -x {2.0 3.1 85 ------- null}
- -t 0.33043 -s 1 -d 3 -p cbr -e 210 -c 0 -i 99 -a 0 -x {2.0 3.1 85 ------- null}
h -t 0.33043 -s 1 -d 3 -p cbr -e 210 -c 0 -i 99 -a 0 -x {2.0 3.1 -1 ------- null}
r -t 0.33086 -s 1 -d 3 -p cbr -e 210 -c 0 -i 96 -a 0 -x {2.0 3.1 82 ------- null}
+ -t 0.33375 -s 2 -d 1 -p cbr -e 210 -c 0 -i 103 -a 0 -x {2.0 3.1 89 ------- null}
- -t 0.33375 -s 2 -d 1 -p cbr -e 210 -c 0 -i 103 -a 0 -x {2.0 3.1 89 ------- null}
h -t 0.33375 -s 2 -d 1 -p cbr -e 210 -c 0 -i 103 -a 0 -x {2.0 3.1 -1 ------- null}
r -t 0.33418 -s 2 -d 1 -p cbr -e 210 -c 0 -i 100 -a 0 -x {2.0 3.1 86 ------- null}
+ -t 0.33418 -s 1 -d 3 -p cbr -e 210 -c 0 -i 100 -a 0 -x {2.0 3.1 86 ------- null}
- -t 0.33418 -s 1 -d 3 -p cbr -e 210 -c 0 -i 100 -a 0 -x {2.0 3.1 86 ------- null}
h -t 0.33418 -s 1 -d 3 -p cbr -e 210 -c 0 -i 100 -a 0 -x {2.0 3.1 -1 ------- null}
r -t 0.33461 -s 1 -d 3 -p cbr -e 210 -c 0 -i 97 -a 0 -x {2.0 3.1 83 ------- null}
+ -t 0.3375 -s 2 -d 1 -p cbr -e 210 -c 0 -i 104 -a 0 -x {2.0 3.1 90 ------- null}
- -t 0.3375 -s 2 -d 1 -p cbr -e 210 -c 0 -i 104 -a 0 -x {2.0 3.1 90 ------- null}
h -t 0.3375 -s 2 -d 1 -p cbr -e 210 -c 0 -i 104 -a 0 -x {2.0 3.1 -1 ------- null}
r -t 0.33793 -s 2 -d 1 -p cbr -e 210 -c 0 -i 101 -a 0 -x {2.0 3.1 87 ------- null}
+ -t 0.33793 -s 1 -d 3 -p cbr -e 210 -c 0 -i 101 -a 0 -x {2.0 3.1 87 ------- null}
- -t 0.33793 -s 1 -d 3 -p cbr -e 210 -c 0 -i 101 -a 0 -x {2.0 3.1 87 ------- null}
h -t 0.33793 -s 1 -d 3 -p cbr -e 210 -c 0 -i 101 -a 0 -x {2.0 3.1 -1 ------- null}
r -t 0.33836 -s 1 -d 3 -p cbr -e 210 -c 0 -i 98 -a 0 -x {2.0 3.1 84 ------- null}
+ -t 0.34125 -s 2 -d 1 -p cbr -e 210 -c 0 -i 105 -a 0 -x {2.0 3.1 91 ------- null}
- -t 0.34125 -s 2 -d 1 -p cbr -e 210 -c 0 -i 105 -a 0 -x {2.0 3.1 91 ------- null}
h -t 0.34125 -s 2 -d 1 -p cbr -e 210 -c 0 -i 105 -a 0 -x {2.0 3.1 -1 ------- null}
r -t 0.34168 -s 2 -d 1 -p cbr -e 210 -c 0 -i 102 -a 0 -x {2.0 3.1 88 ------- null}
+ -t 0.34168 -s 1 -d 3 -p cbr -e 210 -c 0 -i 102 -a 0 -x {2.0 3.1 88 ------- null}
- -t 0.34168 -s 1 -d 3 -p cbr -e 210 -c 0 -i 102 -a 0 -x {2.0 3.1 88 ------- null}
h -t 0.34168 -s 1 -d 3 -p cbr -e 210 -c 0 -i 102 -a 0 -x {2.0 3.1 -1 ------- null}
r -t 0.34211 -s 1 -d 3 -p cbr -e 210 -c 0 -i 99 -a 0 -x {2.0 3.1 85 ------- null}
+ -t 0.345 -s 2 -d 1 -p cbr -e 210 -c 0 -i 106 -a 0 -x {2.0 3.1 92 ------- null}
- -t 0.345 -s 2 -d 1 -p cbr -e 210 -c 0 -i 106 -a 0 -x {2.0 3.1 92 ------- null}
h -t 0.345 -s 2 -d 1 -p cbr -e 210 -c 0 -i 106 -a 0 -x {2.0 3.1 -1 ------- null}
r -t 0.34543 -s 2 -d 1 -p cbr -e 210 -c 0 -i 103 -a 0 -x {2.0 3.1 89 ------- null}
+ -t 0.34543 -s 1 -d 3 -p cbr -e 210 -c 0 -i 103 -a 0 -x {2.0 3.1 89 ------- null}
- -t 0.34543 -s 1 -d 3 -p cbr -e 210 -c 0 -i 103 -a 0 -x {2.0 3.1 89 ------- null}
h -t 0.34543 -s 1 -d 3 -p cbr -e 210 -c 0 -i 103 -a 0 -x {2.0 3.1 -1 ------- null}
r -t 0.34586 -s 1 -d 3 -p cbr -e 210 -c 0 -i 100 -a 0 -x {2.0 3.1 86 ------- null}
+ -t 0.34875 -s 2 -d 1 -p cbr -e 210 -c 0 -i 107 -a 0 -x {2.0 3.1 93 ------- null}
- -t 0.34875 -s 2 -d 1 -p cbr -e 210 -c 0 -i 107 -a 0 -x {2.0 3.1 93 ------- null}
h -t 0.34875 -s 2 -d 1 -p cbr -e 210 -c 0 -i 107 -a 0 -x {2.0 3.1 -1 ------- null}
r -t 0.34918 -s 2 -d 1 -p cbr -e 210 -c 0 -i 104 -a 0 -x {2.0 3.1 90 ------- null}
+ -t 0.34918 -s 1 -d 3 -p cbr -e 210 -c 0 -i 104 -a 0 -x {2.0 3.1 90 ------- null}
- -t 0.34918 -s 1 -d 3 -p cbr -e 210 -c 0 -i 104 -a 0 -x {2.0 3.1 90 ------- null}
h -t 0.34918 -s 1 -d 3 -p cbr -e 210 -c 0 -i 104 -a 0 -x {2.0 3.1 -1 ------- null}
r -t 0.34961 -s 1 -d 3 -p cbr -e 210 -c 0 -i 101 -a 0 -x {2.0 3.1 87 ------- null}
+ -t 0.3525 -s 2 -d 1 -p cbr -e 210 -c 0 -i 108 -a 0 -x {2.0 3.1 94 ------- null}
- -t 0.3525 -s 2 -d 1 -p cbr -e 210 -c 0 -i 108 -a 0 -x {2.0 3.1 94 ------- null}
h -t 0.3525 -s 2 -d 1 -p cbr -e 210 -c 0 -i 108 -a 0 -x {2.0 3.1 -1 ------- null}
r -t 0.35293 -s 2 -d 1 -p cbr -e 210 -c 0 -i 105 -a 0 -x {2.0 3.1 91 ------- null}
+ -t 0.35293 -s 1 -d 3 -p cbr -e 210 -c 0 -i 105 -a 0 -x {2.0 3.1 91 ------- null}
- -t 0.35293 -s 1 -d 3 -p cbr -e 210 -c 0 -i 105 -a 0 -x {2.0 3.1 91 ------- null}
h -t 0.35293 -s 1 -d 3 -p cbr -e 210 -c 0 -i 105 -a 0 -x {2.0 3.1 -1 ------- null}
r -t 0.35336 -s 1 -d 3 -p cbr -e 210 -c 0 -i 102 -a 0 -x {2.0 3.1 88 ------- null}
+ -t 0.35625 -s 2 -d 1 -p cbr -e 210 -c 0 -i 109 -a 0 -x {2.0 3.1 95 ------- null}
- -t 0.35625 -s 2 -d 1 -p cbr -e 210 -c 0 -i 109 -a 0 -x {2.0 3.1 95 ------- null}
h -t 0.35625 -s 2 -d 1 -p cbr -e 210 -c 0 -i 109 -a 0 -x {2.0 3.1 -1 ------- null}
r -t 0.35668 -s 2 -d 1 -p cbr -e 210 -c 0 -i 106 -a 0 -x {2.0 3.1 92 ------- null}
+ -t 0.35668 -s 1 -d 3 -p cbr -e 210 -c 0 -i 106 -a 0 -x {2.0 3.1 92 ------- null}
- -t 0.35668 -s 1 -d 3 -p cbr -e 210 -c 0 -i 106 -a 0 -x {2.0 3.1 92 ------- null}
h -t 0.35668 -s 1 -d 3 -p cbr -e 210 -c 0 -i 106 -a 0 -x {2.0 3.1 -1 ------- null}
r -t 0.35711 -s 1 -d 3 -p cbr -e 210 -c 0 -i 103 -a 0 -x {2.0 3.1 89 ------- null}
+ -t 0.359999999999999 -s 2 -d 1 -p cbr -e 210 -c 0 -i 110 -a 0 -x {2.0 3.1 96 ------- null}
- -t 0.359999999999999 -s 2 -d 1 -p cbr -e 210 -c 0 -i 110 -a 0 -x {2.0 3.1 96 ------- null}
h -t 0.359999999999999 -s 2 -d 1 -p cbr -e 210 -c 0 -i 110 -a 0 -x {2.0 3.1 -1 ------- null}
r -t 0.36043 -s 2 -d 1 -p cbr -e 210 -c 0 -i 107 -a 0 -x {2.0 3.1 93 ------- null}
+ -t 0.36043 -s 1 -d 3 -p cbr -e 210 -c 0 -i 107 -a 0 -x {2.0 3.1 93 ------- null}
- -t 0.36043 -s 1 -d 3 -p cbr -e 210 -c 0 -i 107 -a 0 -x {2.0 3.1 93 ------- null}
h -t 0.36043 -s 1 -d 3 -p cbr -e 210 -c 0 -i 107 -a 0 -x {2.0 3.1 -1 ------- null}
r -t 0.36086 -s 1 -d 3 -p cbr -e 210 -c 0 -i 104 -a 0 -x {2.0 3.1 90 ------- null}
+ -t 0.363749999999999 -s 2 -d 1 -p cbr -e 210 -c 0 -i 111 -a 0 -x {2.0 3.1 97 ------- null}
- -t 0.363749999999999 -s 2 -d 1 -p cbr -e 210 -c 0 -i 111 -a 0 -x {2.0 3.1 97 ------- null}
h -t 0.363749999999999 -s 2 -d 1 -p cbr -e 210 -c 0 -i 111 -a 0 -x {2.0 3.1 -1 ------- null}
r -t 0.36418 -s 2 -d 1 -p cbr -e 210 -c 0 -i 108 -a 0 -x {2.0 3.1 94 ------- null}
+ -t 0.36418 -s 1 -d 3 -p cbr -e 210 -c 0 -i 108 -a 0 -x {2.0 3.1 94 ------- null}
- -t 0.36418 -s 1 -d 3 -p cbr -e 210 -c 0 -i 108 -a 0 -x {2.0 3.1 94 ------- null}
h -t 0.36418 -s 1 -d 3 -p cbr -e 210 -c 0 -i 108 -a 0 -x {2.0 3.1 -1 ------- null}
r -t 0.36461 -s 1 -d 3 -p cbr -e 210 -c 0 -i 105 -a 0 -x {2.0 3.1 91 ------- null}
+ -t 0.367499999999999 -s 2 -d 1 -p cbr -e 210 -c 0 -i 112 -a 0 -x {2.0 3.1 98 ------- null}
- -t 0.367499999999999 -s 2 -d 1 -p cbr -e 210 -c 0 -i 112 -a 0 -x {2.0 3.1 98 ------- null}
h -t 0.367499999999999 -s 2 -d 1 -p cbr -e 210 -c 0 -i 112 -a 0 -x {2.0 3.1 -1 ------- null}
r -t 0.36793 -s 2 -d 1 -p cbr -e 210 -c 0 -i 109 -a 0 -x {2.0 3.1 95 ------- null}
+ -t 0.36793 -s 1 -d 3 -p cbr -e 210 -c 0 -i 109 -a 0 -x {2.0 3.1 95 ------- null}
- -t 0.36793 -s 1 -d 3 -p cbr -e 210 -c 0 -i 109 -a 0 -x {2.0 3.1 95 ------- null}
h -t 0.36793 -s 1 -d 3 -p cbr -e 210 -c 0 -i 109 -a 0 -x {2.0 3.1 -1 ------- null}
r -t 0.36836 -s 1 -d 3 -p cbr -e 210 -c 0 -i 106 -a 0 -x {2.0 3.1 92 ------- null}
+ -t 0.371249999999999 -s 2 -d 1 -p cbr -e 210 -c 0 -i 113 -a 0 -x {2.0 3.1 99 ------- null}
- -t 0.371249999999999 -s 2 -d 1 -p cbr -e 210 -c 0 -i 113 -a 0 -x {2.0 3.1 99 ------- null}
h -t 0.371249999999999 -s 2 -d 1 -p cbr -e 210 -c 0 -i 113 -a 0 -x {2.0 3.1 -1 ------- null}
r -t 0.37168 -s 2 -d 1 -p cbr -e 210 -c 0 -i 110 -a 0 -x {2.0 3.1 96 ------- null}
+ -t 0.37168 -s 1 -d 3 -p cbr -e 210 -c 0 -i 110 -a 0 -x {2.0 3.1 96 ------- null}
- -t 0.37168 -s 1 -d 3 -p cbr -e 210 -c 0 -i 110 -a 0 -x {2.0 3.1 96 ------- null}
h -t 0.37168 -s 1 -d 3 -p cbr -e 210 -c 0 -i 110 -a 0 -x {2.0 3.1 -1 ------- null}
r -t 0.37211 -s 1 -d 3 -p cbr -e 210 -c 0 -i 107 -a 0 -x {2.0 3.1 93 ------- null}
+ -t 0.374999999999999 -s 2 -d 1 -p cbr -e 210 -c 0 -i 114 -a 0 -x {2.0 3.1 100 ------- null}
- -t 0.374999999999999 -s 2 -d 1 -p cbr -e 210 -c 0 -i 114 -a 0 -x {2.0 3.1 100 ------- null}
h -t 0.374999999999999 -s 2 -d 1 -p cbr -e 210 -c 0 -i 114 -a 0 -x {2.0 3.1 -1 ------- null}
r -t 0.375429999999999 -s 2 -d 1 -p cbr -e 210 -c 0 -i 111 -a 0 -x {2.0 3.1 97 ------- null}
+ -t 0.375429999999999 -s 1 -d 3 -p cbr -e 210 -c 0 -i 111 -a 0 -x {2.0 3.1 97 ------- null}
- -t 0.375429999999999 -s 1 -d 3 -p cbr -e 210 -c 0 -i 111 -a 0 -x {2.0 3.1 97 ------- null}
h -t 0.375429999999999 -s 1 -d 3 -p cbr -e 210 -c 0 -i 111 -a 0 -x {2.0 3.1 -1 ------- null}
r -t 0.37586 -s 1 -d 3 -p cbr -e 210 -c 0 -i 108 -a 0 -x {2.0 3.1 94 ------- null}
+ -t 0.378749999999999 -s 2 -d 1 -p cbr -e 210 -c 0 -i 115 -a 0 -x {2.0 3.1 101 ------- null}
- -t 0.378749999999999 -s 2 -d 1 -p cbr -e 210 -c 0 -i 115 -a 0 -x {2.0 3.1 101 ------- null}
h -t 0.378749999999999 -s 2 -d 1 -p cbr -e 210 -c 0 -i 115 -a 0 -x {2.0 3.1 -1 ------- null}
r -t 0.379179999999999 -s 2 -d 1 -p cbr -e 210 -c 0 -i 112 -a 0 -x {2.0 3.1 98 ------- null}
+ -t 0.379179999999999 -s 1 -d 3 -p cbr -e 210 -c 0 -i 112 -a 0 -x {2.0 3.1 98 ------- null}
- -t 0.379179999999999 -s 1 -d 3 -p cbr -e 210 -c 0 -i 112 -a 0 -x {2.0 3.1 98 ------- null}
h -t 0.379179999999999 -s 1 -d 3 -p cbr -e 210 -c 0 -i 112 -a 0 -x {2.0 3.1 -1 ------- null}
r -t 0.37961 -s 1 -d 3 -p cbr -e 210 -c 0 -i 109 -a 0 -x {2.0 3.1 95 ------- null}
+ -t 0.382499999999999 -s 2 -d 1 -p cbr -e 210 -c 0 -i 116 -a 0 -x {2.0 3.1 102 ------- null}
- -t 0.382499999999999 -s 2 -d 1 -p cbr -e 210 -c 0 -i 116 -a 0 -x {2.0 3.1 102 ------- null}
h -t 0.382499999999999 -s 2 -d 1 -p cbr -e 210 -c 0 -i 116 -a 0 -x {2.0 3.1 -1 ------- null}
r -t 0.382929999999999 -s 2 -d 1 -p cbr -e 210 -c 0 -i 113 -a 0 -x {2.0 3.1 99 ------- null}
+ -t 0.382929999999999 -s 1 -d 3 -p cbr -e 210 -c 0 -i 113 -a 0 -x {2.0 3.1 99 ------- null}
- -t 0.382929999999999 -s 1 -d 3 -p cbr -e 210 -c 0 -i 113 -a 0 -x {2.0 3.1 99 ------- null}
h -t 0.382929999999999 -s 1 -d 3 -p cbr -e 210 -c 0 -i 113 -a 0 -x {2.0 3.1 -1 ------- null}
r -t 0.38336 -s 1 -d 3 -p cbr -e 210 -c 0 -i 110 -a 0 -x {2.0 3.1 96 ------- null}
+ -t 0.386249999999999 -s 2 -d 1 -p cbr -e 210 -c 0 -i 117 -a 0 -x {2.0 3.1 103 ------- null}
- -t 0.386249999999999 -s 2 -d 1 -p cbr -e 210 -c 0 -i 117 -a 0 -x {2.0 3.1 103 ------- null}
h -t 0.386249999999999 -s 2 -d 1 -p cbr -e 210 -c 0 -i 117 -a 0 -x {2.0 3.1 -1 ------- null}
r -t 0.386679999999999 -s 2 -d 1 -p cbr -e 210 -c 0 -i 114 -a 0 -x {2.0 3.1 100 ------- null}
+ -t 0.386679999999999 -s 1 -d 3 -p cbr -e 210 -c 0 -i 114 -a 0 -x {2.0 3.1 100 ------- null}
- -t 0.386679999999999 -s 1 -d 3 -p cbr -e 210 -c 0 -i 114 -a 0 -x {2.0 3.1 100 ------- null}
h -t 0.386679999999999 -s 1 -d 3 -p cbr -e 210 -c 0 -i 114 -a 0 -x {2.0 3.1 -1 ------- null}
r -t 0.38711 -s 1 -d 3 -p cbr -e 210 -c 0 -i 111 -a 0 -x {2.0 3.1 97 ------- null}
+ -t 0.389999999999999 -s 2 -d 1 -p cbr -e 210 -c 0 -i 118 -a 0 -x {2.0 3.1 104 ------- null}
- -t 0.389999999999999 -s 2 -d 1 -p cbr -e 210 -c 0 -i 118 -a 0 -x {2.0 3.1 104 ------- null}
h -t 0.389999999999999 -s 2 -d 1 -p cbr -e 210 -c 0 -i 118 -a 0 -x {2.0 3.1 -1 ------- null}
r -t 0.390429999999999 -s 2 -d 1 -p cbr -e 210 -c 0 -i 115 -a 0 -x {2.0 3.1 101 ------- null}
+ -t 0.390429999999999 -s 1 -d 3 -p cbr -e 210 -c 0 -i 115 -a 0 -x {2.0 3.1 101 ------- null}
- -t 0.390429999999999 -s 1 -d 3 -p cbr -e 210 -c 0 -i 115 -a 0 -x {2.0 3.1 101 ------- null}
h -t 0.390429999999999 -s 1 -d 3 -p cbr -e 210 -c 0 -i 115 -a 0 -x {2.0 3.1 -1 ------- null}
r -t 0.390859999999999 -s 1 -d 3 -p cbr -e 210 -c 0 -i 112 -a 0 -x {2.0 3.1 98 ------- null}
+ -t 0.393749999999999 -s 2 -d 1 -p cbr -e 210 -c 0 -i 119 -a 0 -x {2.0 3.1 105 ------- null}
- -t 0.393749999999999 -s 2 -d 1 -p cbr -e 210 -c 0 -i 119 -a 0 -x {2.0 3.1 105 ------- null}
h -t 0.393749999999999 -s 2 -d 1 -p cbr -e 210 -c 0 -i 119 -a 0 -x {2.0 3.1 -1 ------- null}
r -t 0.394179999999999 -s 2 -d 1 -p cbr -e 210 -c 0 -i 116 -a 0 -x {2.0 3.1 102 ------- null}
+ -t 0.394179999999999 -s 1 -d 3 -p cbr -e 210 -c 0 -i 116 -a 0 -x {2.0 3.1 102 ------- null}
- -t 0.394179999999999 -s 1 -d 3 -p cbr -e 210 -c 0 -i 116 -a 0 -x {2.0 3.1 102 ------- null}
h -t 0.394179999999999 -s 1 -d 3 -p cbr -e 210 -c 0 -i 116 -a 0 -x {2.0 3.1 -1 ------- null}
r -t 0.394609999999999 -s 1 -d 3 -p cbr -e 210 -c 0 -i 113 -a 0 -x {2.0 3.1 99 ------- null}
+ -t 0.397499999999999 -s 2 -d 1 -p cbr -e 210 -c 0 -i 120 -a 0 -x {2.0 3.1 106 ------- null}
- -t 0.397499999999999 -s 2 -d 1 -p cbr -e 210 -c 0 -i 120 -a 0 -x {2.0 3.1 106 ------- null}
h -t 0.397499999999999 -s 2 -d 1 -p cbr -e 210 -c 0 -i 120 -a 0 -x {2.0 3.1 -1 ------- null}
r -t 0.397929999999999 -s 2 -d 1 -p cbr -e 210 -c 0 -i 117 -a 0 -x {2.0 3.1 103 ------- null}
+ -t 0.397929999999999 -s 1 -d 3 -p cbr -e 210 -c 0 -i 117 -a 0 -x {2.0 3.1 103 ------- null}
- -t 0.397929999999999 -s 1 -d 3 -p cbr -e 210 -c 0 -i 117 -a 0 -x {2.0 3.1 103 ------- null}
h -t 0.397929999999999 -s 1 -d 3 -p cbr -e 210 -c 0 -i 117 -a 0 -x {2.0 3.1 -1 ------- null}
r -t 0.398359999999999 -s 1 -d 3 -p cbr -e 210 -c 0 -i 114 -a 0 -x {2.0 3.1 100 ------- null}
+ -t 0.401249999999999 -s 2 -d 1 -p cbr -e 210 -c 0 -i 121 -a 0 -x {2.0 3.1 107 ------- null}
- -t 0.401249999999999 -s 2 -d 1 -p cbr -e 210 -c 0 -i 121 -a 0 -x {2.0 3.1 107 ------- null}
h -t 0.401249999999999 -s 2 -d 1 -p cbr -e 210 -c 0 -i 121 -a 0 -x {2.0 3.1 -1 ------- null}
r -t 0.401679999999999 -s 2 -d 1 -p cbr -e 210 -c 0 -i 118 -a 0 -x {2.0 3.1 104 ------- null}
+ -t 0.401679999999999 -s 1 -d 3 -p cbr -e 210 -c 0 -i 118 -a 0 -x {2.0 3.1 104 ------- null}
- -t 0.401679999999999 -s 1 -d 3 -p cbr -e 210 -c 0 -i 118 -a 0 -x {2.0 3.1 104 ------- null}
h -t 0.401679999999999 -s 1 -d 3 -p cbr -e 210 -c 0 -i 118 -a 0 -x {2.0 3.1 -1 ------- null}
r -t 0.402109999999999 -s 1 -d 3 -p cbr -e 210 -c 0 -i 115 -a 0 -x {2.0 3.1 101 ------- null}
+ -t 0.404999999999999 -s 2 -d 1 -p cbr -e 210 -c 0 -i 122 -a 0 -x {2.0 3.1 108 ------- null}
- -t 0.404999999999999 -s 2 -d 1 -p cbr -e 210 -c 0 -i 122 -a 0 -x {2.0 3.1 108 ------- null}
h -t 0.404999999999999 -s 2 -d 1 -p cbr -e 210 -c 0 -i 122 -a 0 -x {2.0 3.1 -1 ------- null}
r -t 0.405429999999999 -s 2 -d 1 -p cbr -e 210 -c 0 -i 119 -a 0 -x {2.0 3.1 105 ------- null}
+ -t 0.405429999999999 -s 1 -d 3 -p cbr -e 210 -c 0 -i 119 -a 0 -x {2.0 3.1 105 ------- null}
- -t 0.405429999999999 -s 1 -d 3 -p cbr -e 210 -c 0 -i 119 -a 0 -x {2.0 3.1 105 ------- null}
h -t 0.405429999999999 -s 1 -d 3 -p cbr -e 210 -c 0 -i 119 -a 0 -x {2.0 3.1 -1 ------- null}
r -t 0.405859999999999 -s 1 -d 3 -p cbr -e 210 -c 0 -i 116 -a 0 -x {2.0 3.1 102 ------- null}
+ -t 0.408749999999999 -s 2 -d 1 -p cbr -e 210 -c 0 -i 123 -a 0 -x {2.0 3.1 109 ------- null}
- -t 0.408749999999999 -s 2 -d 1 -p cbr -e 210 -c 0 -i 123 -a 0 -x {2.0 3.1 109 ------- null}
h -t 0.408749999999999 -s 2 -d 1 -p cbr -e 210 -c 0 -i 123 -a 0 -x {2.0 3.1 -1 ------- null}
r -t 0.409179999999999 -s 2 -d 1 -p cbr -e 210 -c 0 -i 120 -a 0 -x {2.0 3.1 106 ------- null}
+ -t 0.409179999999999 -s 1 -d 3 -p cbr -e 210 -c 0 -i 120 -a 0 -x {2.0 3.1 106 ------- null}
- -t 0.409179999999999 -s 1 -d 3 -p cbr -e 210 -c 0 -i 120 -a 0 -x {2.0 3.1 106 ------- null}
h -t 0.409179999999999 -s 1 -d 3 -p cbr -e 210 -c 0 -i 120 -a 0 -x {2.0 3.1 -1 ------- null}
r -t 0.409609999999999 -s 1 -d 3 -p cbr -e 210 -c 0 -i 117 -a 0 -x {2.0 3.1 103 ------- null}
+ -t 0.412499999999999 -s 2 -d 1 -p cbr -e 210 -c 0 -i 124 -a 0 -x {2.0 3.1 110 ------- null}
- -t 0.412499999999999 -s 2 -d 1 -p cbr -e 210 -c 0 -i 124 -a 0 -x {2.0 3.1 110 ------- null}
h -t 0.412499999999999 -s 2 -d 1 -p cbr -e 210 -c 0 -i 124 -a 0 -x {2.0 3.1 -1 ------- null}
r -t 0.412929999999999 -s 2 -d 1 -p cbr -e 210 -c 0 -i 121 -a 0 -x {2.0 3.1 107 ------- null}
+ -t 0.412929999999999 -s 1 -d 3 -p cbr -e 210 -c 0 -i 121 -a 0 -x {2.0 3.1 107 ------- null}
- -t 0.412929999999999 -s 1 -d 3 -p cbr -e 210 -c 0 -i 121 -a 0 -x {2.0 3.1 107 ------- null}
h -t 0.412929999999999 -s 1 -d 3 -p cbr -e 210 -c 0 -i 121 -a 0 -x {2.0 3.1 -1 ------- null}
r -t 0.413359999999999 -s 1 -d 3 -p cbr -e 210 -c 0 -i 118 -a 0 -x {2.0 3.1 104 ------- null}
+ -t 0.416249999999999 -s 2 -d 1 -p cbr -e 210 -c 0 -i 125 -a 0 -x {2.0 3.1 111 ------- null}
- -t 0.416249999999999 -s 2 -d 1 -p cbr -e 210 -c 0 -i 125 -a 0 -x {2.0 3.1 111 ------- null}
h -t 0.416249999999999 -s 2 -d 1 -p cbr -e 210 -c 0 -i 125 -a 0 -x {2.0 3.1 -1 ------- null}
r -t 0.416679999999999 -s 2 -d 1 -p cbr -e 210 -c 0 -i 122 -a 0 -x {2.0 3.1 108 ------- null}
+ -t 0.416679999999999 -s 1 -d 3 -p cbr -e 210 -c 0 -i 122 -a 0 -x {2.0 3.1 108 ------- null}
- -t 0.416679999999999 -s 1 -d 3 -p cbr -e 210 -c 0 -i 122 -a 0 -x {2.0 3.1 108 ------- null}
h -t 0.416679999999999 -s 1 -d 3 -p cbr -e 210 -c 0 -i 122 -a 0 -x {2.0 3.1 -1 ------- null}
r -t 0.417109999999999 -s 1 -d 3 -p cbr -e 210 -c 0 -i 119 -a 0 -x {2.0 3.1 105 ------- null}
+ -t 0.419999999999999 -s 2 -d 1 -p cbr -e 210 -c 0 -i 126 -a 0 -x {2.0 3.1 112 ------- null}
- -t 0.419999999999999 -s 2 -d 1 -p cbr -e 210 -c 0 -i 126 -a 0 -x {2.0 3.1 112 ------- null}
h -t 0.419999999999999 -s 2 -d 1 -p cbr -e 210 -c 0 -i 126 -a 0 -x {2.0 3.1 -1 ------- null}
r -t 0.420429999999999 -s 2 -d 1 -p cbr -e 210 -c 0 -i 123 -a 0 -x {2.0 3.1 109 ------- null}
+ -t 0.420429999999999 -s 1 -d 3 -p cbr -e 210 -c 0 -i 123 -a 0 -x {2.0 3.1 109 ------- null}
- -t 0.420429999999999 -s 1 -d 3 -p cbr -e 210 -c 0 -i 123 -a 0 -x {2.0 3.1 109 ------- null}
h -t 0.420429999999999 -s 1 -d 3 -p cbr -e 210 -c 0 -i 123 -a 0 -x {2.0 3.1 -1 ------- null}
r -t 0.420859999999999 -s 1 -d 3 -p cbr -e 210 -c 0 -i 120 -a 0 -x {2.0 3.1 106 ------- null}
+ -t 0.423749999999999 -s 2 -d 1 -p cbr -e 210 -c 0 -i 127 -a 0 -x {2.0 3.1 113 ------- null}
- -t 0.423749999999999 -s 2 -d 1 -p cbr -e 210 -c 0 -i 127 -a 0 -x {2.0 3.1 113 ------- null}
h -t 0.423749999999999 -s 2 -d 1 -p cbr -e 210 -c 0 -i 127 -a 0 -x {2.0 3.1 -1 ------- null}
r -t 0.424179999999999 -s 2 -d 1 -p cbr -e 210 -c 0 -i 124 -a 0 -x {2.0 3.1 110 ------- null}
+ -t 0.424179999999999 -s 1 -d 3 -p cbr -e 210 -c 0 -i 124 -a 0 -x {2.0 3.1 110 ------- null}
- -t 0.424179999999999 -s 1 -d 3 -p cbr -e 210 -c 0 -i 124 -a 0 -x {2.0 3.1 110 ------- null}
h -t 0.424179999999999 -s 1 -d 3 -p cbr -e 210 -c 0 -i 124 -a 0 -x {2.0 3.1 -1 ------- null}
r -t 0.424609999999999 -s 1 -d 3 -p cbr -e 210 -c 0 -i 121 -a 0 -x {2.0 3.1 107 ------- null}
+ -t 0.427499999999999 -s 2 -d 1 -p cbr -e 210 -c 0 -i 128 -a 0 -x {2.0 3.1 114 ------- null}
- -t 0.427499999999999 -s 2 -d 1 -p cbr -e 210 -c 0 -i 128 -a 0 -x {2.0 3.1 114 ------- null}